                                                                                     
                             WELCOME TO ABACUS v3.0                                  
                                                                                     
               'Atomic-orbital Based Ab-initio Computation at UStc'                  
                                                                                     
                     Website: http://abacus.ustc.edu.cn/                             
                                                                                     
    Version: Parallel, in development
    Processor Number is 4
    Start Time is Wed Feb  8 16:48:00 2023
                                                                                     
 ------------------------------------------------------------------------------------

 READING GENERAL INFORMATION
                           global_out_dir = OUT.ABACUS/
                           global_in_card = INPUT
                               pseudo_dir = 
                              orbital_dir = 
                                    DRANK = 1
                                    DSIZE = 4
                                   DCOLOR = 1
                                    GRANK = 1
                                    GSIZE = 1
 The esolver type has been set to : ksdft_lcao




 >>>>>>>>>>>>>>>>>>>>>>>>>>>>>>>>>>>>>>>>>>>>>>>>>>>>>>>>>>>>>>>>>>>>>>
 |                                                                    |
 | Reading atom information in unitcell:                              |
 | From the input file and the structure file we know the number of   |
 | different elments in this unitcell, then we list the detail        |
 | information for each element, especially the zeta and polar atomic |
 | orbital number for each element. The total atom number is counted. |
 | We calculate the nearest atom distance for each atom and show the  |
 | Cartesian and Direct coordinates for each atom. We list the file   |
 | address for atomic orbitals. The volume and the lattice vectors    |
 | in real and reciprocal space is also shown.                        |
 |                                                                    |
 <<<<<<<<<<<<<<<<<<<<<<<<<<<<<<<<<<<<<<<<<<<<<<<<<<<<<<<<<<<<<<<<<<<<<<




 READING UNITCELL INFORMATION
                                    ntype = 2
                 atom label for species 1 = H
                 atom label for species 2 = C
                  lattice constant (Bohr) = 1.88973
              lattice constant (Angstrom) = 1

 READING ATOM TYPE 1
                               atom label = H
                      L=0, number of zeta = 2
                      L=1, number of zeta = 1
             number of atom for this type = 4
                      start magnetization = FALSE
                      start magnetization = FALSE
                      start magnetization = FALSE
                      start magnetization = FALSE

 READING ATOM TYPE 2
                               atom label = C
                      L=0, number of zeta = 2
                      L=1, number of zeta = 2
                      L=2, number of zeta = 1
             number of atom for this type = 1
                      start magnetization = FALSE

                        TOTAL ATOM NUMBER = 5

 CARTESIAN COORDINATES ( UNIT = 1.88973 Bohr ).
         atom                   x                   y                   z                 mag                  vx                  vy                  vz
      tauc_H1       5.38154338599         4.068608007       3.60573014201                   0                   0                   0                   0
      tauc_H2       3.94539655699         4.803205689           4.3846884                   0                   0                   0                   0
      tauc_H3       5.52092428299       5.65450285299       4.42708737801                   0                   0                   0                   0
      tauc_H4         5.281853047         4.164147552       5.39182656799                   0                   0                   0                   0
      tauc_C1       5.03250592599         4.672551599       4.45232341201                   0                   0                   0                   0


 READING ORBITAL FILE NAMES FOR LCAO
 orbital file: H_gga_6au_100Ry_2s1p.orb
 orbital file: C_gga_6au_100Ry_2s2p1d.orb

                          Volume (Bohr^3) = 6748.33450351
                             Volume (A^3) = 999.998805675

 Lattice vectors: (Cartesian coordinate: in unit of a_0)
                  +10                  +0                  +0
                   +0                 +10                  +0
                   +0                  +0                 +10
 Reciprocal vectors: (Cartesian coordinate: in unit of 2 pi/a_0)
                 +0.1                  -0                  +0
                   +0                +0.1                  -0
                   +0                  -0                +0.1




 >>>>>>>>>>>>>>>>>>>>>>>>>>>>>>>>>>>>>>>>>>>>>>>>>>>>>>>>>>>>>>>>>>>>>>
 |                                                                    |
 | Reading pseudopotentials files:                                    |
 | The pseudopotential file is in UPF format. The 'NC' indicates that |
 | the type of pseudopotential is 'norm conserving'. Functional of    |
 | exchange and correlation is decided by 4 given parameters in UPF   |
 | file.  We also read in the 'core correction' if there exists.      |
 | Also we can read the valence electrons number and the maximal      |
 | angular momentum used in this pseudopotential. We also read in the |
 | trail wave function, trail atomic density and local-pseudopotential|
 | on logrithmic grid. The non-local pseudopotential projector is also|
 | read in if there is any.                                           |
 |                                                                    |
 <<<<<<<<<<<<<<<<<<<<<<<<<<<<<<<<<<<<<<<<<<<<<<<<<<<<<<<<<<<<<<<<<<<<<<




                PAO radial cut off (Bohr) = 15

 Read in pseudopotential file is H_ONCV_PBE-1.2.upf
                     pseudopotential type = NC
          exchange-correlation functional = PBE
                 nonlocal core correction = 0
                        valence electrons = 1
                                     lmax = 0
                           number of zeta = 0
                     number of projectors = 2
                           L of projector = 0
                           L of projector = 0
                PAO radial cut off (Bohr) = 15

 Read in pseudopotential file is C_ONCV_PBE-1.2.upf
                     pseudopotential type = NC
          exchange-correlation functional = PBE
                 nonlocal core correction = 0
                        valence electrons = 4
                                     lmax = 1
                           number of zeta = 0
                     number of projectors = 4
                           L of projector = 0
                           L of projector = 0
                           L of projector = 1
                           L of projector = 1
     initial pseudo atomic orbital number = 0
                                   NLOCAL = 33




 >>>>>>>>>>>>>>>>>>>>>>>>>>>>>>>>>>>>>>>>>>>>>>>>>>>>>>>>>>>>>>>>>>>>>>
 |                                                                    |
 | Setup plane waves of charge/potential:                             |
 | Use the energy cutoff and the lattice vectors to generate the      |
 | dimensions of FFT grid. The number of FFT grid on each processor   |
 | is 'nrxx'. The number of plane wave basis in reciprocal space is   |
 | different for charege/potential and wave functions. We also set    |
 | the 'sticks' for the parallel of FFT. The number of plane waves    |
 | is 'npw' in each processor.                                        |
 <<<<<<<<<<<<<<<<<<<<<<<<<<<<<<<<<<<<<<<<<<<<<<<<<<<<<<<<<<<<<<<<<<<<<<





 SETUP THE PLANE WAVE BASIS
 energy cutoff for charge/potential (unit:Ry) = 400
          [fft grid for charge/potential] = 128, 128, 128
                      [fft grid division] = 2, 2, 2
      [big fft grid for charge/potential] = 64, 64, 64
                                     nbxx = 65536
                                     nrxx = 524288

 SETUP PLANE WAVES FOR CHARGE/POTENTIAL
                    number of plane waves = 911913
                         number of sticks = 11369

 PARALLEL PW FOR CHARGE/POTENTIAL
     PROC   COLUMNS(POT)             PW
        1           2842         227978
        2           2842         227978
        3           2843         227979
        4           2842         227978
 --------------- sum -------------------
        4          11369         911913
                            number of |g| = 3009
                                  max |g| = 36.18
                                  min |g| = 0.01

 SETUP THE ELECTRONS NUMBER
             electron number of element H = 1
       total electron number of element H = 4
             electron number of element C = 4
       total electron number of element C = 4
            AUTOSET number of electrons:  = 8
 DONE : SETUP UNITCELL Time : 0.167716052234 (SEC)





 >>>>>>>>>>>>>>>>>>>>>>>>>>>>>>>>>>>>>>>>>>>>>>>>>>>>>>>>>>>>>>>>>>>>>>
 |                                                                    |
 | Setup K-points                                                     |
 | We setup the k-points according to input parameters.               |
 | The reduced k-points are set according to symmetry operations.     |
 | We treat the spin as another set of k-points.                      |
 |                                                                    |
 <<<<<<<<<<<<<<<<<<<<<<<<<<<<<<<<<<<<<<<<<<<<<<<<<<<<<<<<<<<<<<<<<<<<<<





 SETUP K-POINTS
                                    nspin = 1
                   Input type of k points = Monkhorst-Pack(Gamma)
                                   nkstot = 1
                               nkstot_ibz = 1
      IBZ             DirectX             DirectY             DirectZ              Weight    ibz2bz
        1                   0                   0                   0                   1         0
                               nkstot now = 1

  KPOINTS            DIRECT_X            DIRECT_Y            DIRECT_Z              WEIGHT
        1                   0                   0                   0                   1

           k-point number in this process = 1
       minimum distributed K point number = 1

  KPOINTS         CARTESIAN_X         CARTESIAN_Y         CARTESIAN_Z              WEIGHT
        1                   0                   0                   0                   2

  KPOINTS            DIRECT_X            DIRECT_Y            DIRECT_Z              WEIGHT
        1                   0                   0                   0                   2
 DONE : INIT K-POINTS Time : 0.1789904056 (SEC)

                           occupied bands = 4
                                   NLOCAL = 33
                                   NBANDS = 14
                                   NBANDS = 14




 >>>>>>>>>>>>>>>>>>>>>>>>>>>>>>>>>>>>>>>>>>>>>>>>>>>>>>>>>>>>>>>>>>>>>>
 |                                                                    |
 | Setup numerical orbitals:                                          |
 | This part setup: numerical atomic orbitals, non-local projectors   |
 | and neutral potential (1D). The atomic orbitals information        |
 | including the radius, angular momentum and zeta number.            |
 | The neutral potential is the sum of local part of pseudopotential  |
 | and potential given by atomic charge, they will cancel out beyond  |
 | a certain radius cutoff, because the Z/r character.                |
 |                                                                    |
 <<<<<<<<<<<<<<<<<<<<<<<<<<<<<<<<<<<<<<<<<<<<<<<<<<<<<<<<<<<<<<<<<<<<<<





 SETUP ONE DIMENSIONAL ORBITALS/POTENTIAL
                        delta k  (1/Bohr) = 0.01
                        delta r    (Bohr) = 0.01
                        dr_uniform (Bohr) = 0.001
                        rmax       (Bohr) = 30
                                    kmesh = 1005
      ORBITAL  L  N      nr      dr    RCUT  CHECK_UNIT    NEW_UNIT
            1  0  0     601    0.01       6           1           1
            2  0  1     601    0.01       6           1           1
            3  1  0     601    0.01       6           1           1
      ORBITAL  L  N      nr      dr    RCUT  CHECK_UNIT    NEW_UNIT
            1  0  0     601    0.01       6           1           1
            2  0  1     601    0.01       6           1           1
            3  1  0     601    0.01       6           1           1
            4  1  1     601    0.01       6           1           1
            5  2  0     601    0.01       6           1           1
 SET NONLOCAL PSEUDOPOTENTIAL PROJECTORS
 SET NONLOCAL PSEUDOPOTENTIAL PROJECTORS
 max number of nonlocal projetors among all species is 4

 SETUP THE TWO-CENTER INTEGRATION TABLES

 SETUP THE DIVISION OF H/S MATRIX
 divide the H&S matrix using 2D block algorithms.
                                     nb2d = 1
                  trace_loc_row dimension = 33
                  trace_loc_col dimension = 33
                                     nloc = 289

 -------------------------------------------
 STEP OF MOLECULAR DYNAMICS : 0
 -------------------------------------------
              searching radius is (Bohr)) = 14.9
         searching radius unit is (Bohr)) = 1.89
289
                                 init_chg = atomic
 DONE : INIT SCF Time : 3.61871 (SEC)


 LCAO ALGORITHM --------------- ION=   1  ELEC=   1--------------------------------

 Density error is 0.343081167009

 LCAO ALGORITHM --------------- ION=   1  ELEC=   2--------------------------------

 Density error is 0.13657782405

 LCAO ALGORITHM --------------- ION=   1  ELEC=   3--------------------------------

 Density error is 0.0724600647284

 LCAO ALGORITHM --------------- ION=   1  ELEC=   4--------------------------------

 Density error is 0.00433860145854

 LCAO ALGORITHM --------------- ION=   1  ELEC=   5--------------------------------

 Density error is 0.000436143954104

 LCAO ALGORITHM --------------- ION=   1  ELEC=   6--------------------------------

 Density error is 9.77261190413e-05

 LCAO ALGORITHM --------------- ION=   1  ELEC=   7--------------------------------

 Density error is 1.35867556232e-05

 LCAO ALGORITHM --------------- ION=   1  ELEC=   8--------------------------------

 Density error is 3.4715401221e-06

 LCAO ALGORITHM --------------- ION=   1  ELEC=   9--------------------------------

 Density error is 1.34058295837e-06

 LCAO ALGORITHM --------------- ION=   1  ELEC=  10--------------------------------

 Density error is 7.98147374922e-09

 charge density convergence is achieved
 final etot is -219.802011715 eV

 ><><><><><><><><><><><><><><><><><><><><><><><><><><><><><><><><><><><

    TOTAL-FORCE (eV/Angstrom)

 ><><><><><><><><><><><><><><><><><><><><><><><><><><><><><><><><><><><

     atom              x              y              z
       H1        -0.025829032        +0.044894793        +0.063188962
       H2        +0.082731576        -0.010089593       +0.0050696763
       H3        -0.036793422        -0.074575584       +0.0018609943
       H4        -0.018391933        +0.037803986        -0.070313755
       C1       -0.0017171891       +0.0019663982      +0.00019412198


 ><><><><><><><><><><><><><><><><><><><><><><><><><><><><><><><><><><><

 TOTAL-STRESS (KBAR)

 ><><><><><><><><><><><><><><><><><><><><><><><><><><><><><><><><><><><

               -0.196760              -0.000610              -0.000114
               -0.000610              -0.195555              +0.000104
               -0.000114              +0.000104              -0.193903
 TOTAL-PRESSURE: -0.195406 KBAR


 ------------------------------------------------------------------------------------------------
 Energy              Potential           Kinetic             Temperature         Pressure (KBAR)     
 -8.0718718          -8.077572           +0.0057002678       +300                -0.029727597        
 ------------------------------------------------------------------------------------------------

output Pressure for check!
Virtual Pressure is -0.029727597 Kbar 
Virial Term is -0.19540585 Kbar 
Kenetic Term is +0.16567825 Kbar 


 ><><><><><><><><><><><><><><><><><><><><><><><><><><><><><><><><><><><

 MD STRESS (KBAR)

 ><><><><><><><><><><><><><><><><><><><><><><><><><><><><><><><><><><><

+0.030746268   -0.16018992    +0.06159405    
-0.16018992    +0.0028781203  -0.07533363    
+0.06159405    -0.07533363    -0.12280718    



 -------------------------------------------
 STEP OF MOLECULAR DYNAMICS : 1
 -------------------------------------------
 NEW-OLD atomic charge density approx. for the potential !
 searching radius is (Bohr))              = +14.89
 searching radius unit is (Bohr))         = +1.8897261
+289
 DONE : INIT SCF Time : +16.8344 (SEC)


 LCAO ALGORITHM --------------- ION=+2    ELEC=+1  --------------------------------

 Density error is +0.0110018925397

 LCAO ALGORITHM --------------- ION=+2    ELEC=+2  --------------------------------

 Density error is +0.00635527937303

 LCAO ALGORITHM --------------- ION=+2    ELEC=+3  --------------------------------

 Density error is +0.00086081736262

 LCAO ALGORITHM --------------- ION=+2    ELEC=+4  --------------------------------

 Density error is +0.000298161279218

 LCAO ALGORITHM --------------- ION=+2    ELEC=+5  --------------------------------

 Density error is +6.90565769874e-05

 LCAO ALGORITHM --------------- ION=+2    ELEC=+6  --------------------------------

 Density error is +8.4526618454e-06

 LCAO ALGORITHM --------------- ION=+2    ELEC=+7  --------------------------------

 Density error is +8.16142160576e-07

 LCAO ALGORITHM --------------- ION=+2    ELEC=+8  --------------------------------

 Density error is +5.17162084725e-08

 charge density convergence is achieved
 final etot is -219.783426093 eV

 ><><><><><><><><><><><><><><><><><><><><><><><><><><><><><><><><><><><

    TOTAL-FORCE (eV/Angstrom)

 ><><><><><><><><><><><><><><><><><><><><><><><><><><><><><><><><><><><

 atom    x              y              z              
 H1      -0.090865307        +0.1300283          -0.055340932        
 H2      -0.16804437         -0.062241151        -0.036877405        
 H3      +0.19661087         +0.1911952          +0.035307854        
 H4      -0.23019456         +0.55006733         -0.63779819         
 C1      +0.29249338         -0.80904968         +0.69470867         


 ><><><><><><><><><><><><><><><><><><><><><><><><><><><><><><><><><><><

 TOTAL-STRESS (KBAR)

 ><><><><><><><><><><><><><><><><><><><><><><><><><><><><><><><><><><><

 +0.281682              +0.566763              -0.222225              
 +0.566763              -0.317662              +0.656297              
 -0.222225              +0.656297              -0.892643              
 TOTAL-PRESSURE: -0.309541 KBAR


 ------------------------------------------------------------------------------------------------
 Energy              Potential           Kinetic             Temperature         Pressure (KBAR)     
 -8.0718226          -8.076889           +0.0050664077       +266.64051          -0.16228569         
 ------------------------------------------------------------------------------------------------

output Pressure for check!
Virtual Pressure is -0.16228569 Kbar 
Virial Term is -0.3095408 Kbar 
Kenetic Term is +0.14725511 Kbar 


 ><><><><><><><><><><><><><><><><><><><><><><><><><><><><><><><><><><><

 MD STRESS (KBAR)

 ><><><><><><><><><><><><><><><><><><><><><><><><><><><><><><><><><><><

+0.49063979    +0.4258442     -0.17860683    
+0.4258442     -0.14978302    +0.60175818    
-0.17860683    +0.60175818    -0.82771384    



 -------------------------------------------
 STEP OF MOLECULAR DYNAMICS : 2
 -------------------------------------------
 NEW-OLD atomic charge density approx. for the potential !
 searching radius is (Bohr))              = +14.89
 searching radius unit is (Bohr))         = +1.8897261
+289
 DONE : INIT SCF Time : +26.0173 (SEC)


 LCAO ALGORITHM --------------- ION=+3    ELEC=+1  --------------------------------

 Density error is +0.00946154493851

 LCAO ALGORITHM --------------- ION=+3    ELEC=+2  --------------------------------

 Density error is +0.00548257528099

 LCAO ALGORITHM --------------- ION=+3    ELEC=+3  --------------------------------

 Density error is +0.000563290685821

 LCAO ALGORITHM --------------- ION=+3    ELEC=+4  --------------------------------

 Density error is +0.000206435170987

 LCAO ALGORITHM --------------- ION=+3    ELEC=+5  --------------------------------

 Density error is +4.92527980819e-05

 LCAO ALGORITHM --------------- ION=+3    ELEC=+6  --------------------------------

 Density error is +6.56281509791e-06

 LCAO ALGORITHM --------------- ION=+3    ELEC=+7  --------------------------------

 Density error is +7.01512283813e-07

 LCAO ALGORITHM --------------- ION=+3    ELEC=+8  --------------------------------

 Density error is +7.22481981552e-08

 charge density convergence is achieved
 final etot is -219.746867659 eV

 ><><><><><><><><><><><><><><><><><><><><><><><><><><><><><><><><><><><

    TOTAL-FORCE (eV/Angstrom)

 ><><><><><><><><><><><><><><><><><><><><><><><><><><><><><><><><><><><

 atom    x              y              z              
 H1      -0.14731852         +0.20051227         -0.17653235         
 H2      -0.35210554         -0.11534508         -0.071897095        
 H3      +0.37361033         +0.38211535         +0.062447606        
 H4      -0.3788003          +0.9130586          -0.92713827         
 C1      +0.50461403         -1.3803411          +1.1131201          


 ><><><><><><><><><><><><><><><><><><><><><><><><><><><><><><><><><><><

 TOTAL-STRESS (KBAR)

 ><><><><><><><><><><><><><><><><><><><><><><><><><><><><><><><><><><><

 +0.602629              +1.022483              -0.377573              
 +1.022483              -0.449435              +1.106687              
 -0.377573              +1.106687              -1.171663              
 TOTAL-PRESSURE: -0.339490 KBAR


 ------------------------------------------------------------------------------------------------
 Energy              Potential           Kinetic             Temperature         Pressure (KBAR)     
 -8.0717479          -8.0755455          +0.00379761         +199.86482          -0.22911225         
 ------------------------------------------------------------------------------------------------

output Pressure for check!
Virtual Pressure is -0.22911225 Kbar 
Virial Term is -0.33948976 Kbar 
Kenetic Term is +0.11037751 Kbar 


 ><><><><><><><><><><><><><><><><><><><><><><><><><><><><><><><><><><><

 MD STRESS (KBAR)

 ><><><><><><><><><><><><><><><><><><><><><><><><><><><><><><><><><><><

+0.7631585     +0.92053782    -0.37481083    
+0.92053782    -0.33994872    +1.0857694     
-0.37481083    +1.0857694     -1.1105465     



 -------------------------------------------
 STEP OF MOLECULAR DYNAMICS : 3
 -------------------------------------------
 NEW-OLD atomic charge density approx. for the potential !
 searching radius is (Bohr))              = +14.89
 searching radius unit is (Bohr))         = +1.8897261
+289
 DONE : INIT SCF Time : +35.2003 (SEC)


 LCAO ALGORITHM --------------- ION=+4    ELEC=+1  --------------------------------

 Density error is +0.00761034644188

 LCAO ALGORITHM --------------- ION=+4    ELEC=+2  --------------------------------

 Density error is +0.00445922374265

 LCAO ALGORITHM --------------- ION=+4    ELEC=+3  --------------------------------

 Density error is +0.000254532078217

 LCAO ALGORITHM --------------- ION=+4    ELEC=+4  --------------------------------

 Density error is +0.000118950931529

 LCAO ALGORITHM --------------- ION=+4    ELEC=+5  --------------------------------

 Density error is +2.13320476085e-05

 LCAO ALGORITHM --------------- ION=+4    ELEC=+6  --------------------------------

 Density error is +3.06546581767e-06

 LCAO ALGORITHM --------------- ION=+4    ELEC=+7  --------------------------------

 Density error is +2.875086893e-07

 LCAO ALGORITHM --------------- ION=+4    ELEC=+8  --------------------------------

 Density error is +3.58577287143e-08

 charge density convergence is achieved
 final etot is -219.722516179 eV

 ><><><><><><><><><><><><><><><><><><><><><><><><><><><><><><><><><><><

    TOTAL-FORCE (eV/Angstrom)

 ><><><><><><><><><><><><><><><><><><><><><><><><><><><><><><><><><><><

 atom    x              y              z              
 H1      -0.19294902         +0.2557347          -0.29522455         
 H2      -0.39392786         -0.1631878          -0.10132406         
 H3      +0.44357408         +0.39582199         +0.081785762        
 H4      -0.43880439         +1.0862208          -0.92381394         
 C1      +0.58210719         -1.5745897          +1.2385768          


 ><><><><><><><><><><><><><><><><><><><><><><><><><><><><><><><><><><><

 TOTAL-STRESS (KBAR)

 ><><><><><><><><><><><><><><><><><><><><><><><><><><><><><><><><><><><

 +0.639359              +1.253131              -0.415524              
 +1.253131              -0.672043              +1.278024              
 -0.415524              +1.278024              -1.000505              
 TOTAL-PRESSURE: -0.344396 KBAR


 ------------------------------------------------------------------------------------------------
 Energy              Potential           Kinetic             Temperature         Pressure (KBAR)     
 -8.0717162          -8.0746506          +0.0029344043       +154.43508          -0.25910784         
 ------------------------------------------------------------------------------------------------

output Pressure for check!
Virtual Pressure is -0.25910784 Kbar 
Virial Term is -0.34439628 Kbar 
Kenetic Term is +0.085288446 Kbar 


 ><><><><><><><><><><><><><><><><><><><><><><><><><><><><><><><><><><><

 MD STRESS (KBAR)

 ><><><><><><><><><><><><><><><><><><><><><><><><><><><><><><><><><><><

+0.74634525    +1.1965444     -0.45111633    
+1.1965444     -0.60429261    +1.2681385     
-0.45111633    +1.2681385     -0.91937615    



 -------------------------------------------
 STEP OF MOLECULAR DYNAMICS : 4
 -------------------------------------------
 NEW-OLD atomic charge density approx. for the potential !
 searching radius is (Bohr))              = +14.89
 searching radius unit is (Bohr))         = +1.8897261
+289
 DONE : INIT SCF Time : +44.3902 (SEC)


 LCAO ALGORITHM --------------- ION=+5    ELEC=+1  --------------------------------

 Density error is +0.00750458959918

 LCAO ALGORITHM --------------- ION=+5    ELEC=+2  --------------------------------

 Density error is +0.00434280093754

 LCAO ALGORITHM --------------- ION=+5    ELEC=+3  --------------------------------

 Density error is +0.000458903480183

 LCAO ALGORITHM --------------- ION=+5    ELEC=+4  --------------------------------

 Density error is +9.33416159256e-05

 LCAO ALGORITHM --------------- ION=+5    ELEC=+5  --------------------------------

 Density error is +2.32385684951e-05

 LCAO ALGORITHM --------------- ION=+5    ELEC=+6  --------------------------------

 Density error is +6.98615941629e-06

 LCAO ALGORITHM --------------- ION=+5    ELEC=+7  --------------------------------

 Density error is +5.19250240601e-07

 LCAO ALGORITHM --------------- ION=+5    ELEC=+8  --------------------------------

 Density error is +7.7156749771e-08

 charge density convergence is achieved
 final etot is -219.722926826 eV

 ><><><><><><><><><><><><><><><><><><><><><><><><><><><><><><><><><><><

    TOTAL-FORCE (eV/Angstrom)

 ><><><><><><><><><><><><><><><><><><><><><><><><><><><><><><><><><><><

 atom    x              y              z              
 H1      -0.22741994         +0.29672624         -0.40222472         
 H2      -0.27551885         -0.19588673         -0.12833034         
 H3      +0.40085594         +0.20913586         +0.093487798        
 H4      -0.39639285         +1.0542504          -0.64540235         
 C1      +0.4984757          -1.3642258          +1.0824696          


 ><><><><><><><><><><><><><><><><><><><><><><><><><><><><><><><><><><><

 TOTAL-STRESS (KBAR)

 ><><><><><><><><><><><><><><><><><><><><><><><><><><><><><><><><><><><

 +0.387379              +1.214650              -0.304056              
 +1.214650              -0.985416              +1.149298              
 -0.304056              +1.149298              -0.428230              
 TOTAL-PRESSURE: -0.342089 KBAR


 ------------------------------------------------------------------------------------------------
 Energy              Potential           Kinetic             Temperature         Pressure (KBAR)     
 -8.0717456          -8.0746657          +0.0029201278       +153.68372          -0.25721542         
 ------------------------------------------------------------------------------------------------

output Pressure for check!
Virtual Pressure is -0.25721542 Kbar 
Virial Term is -0.34208892 Kbar 
Kenetic Term is +0.084873498 Kbar 


 ><><><><><><><><><><><><><><><><><><><><><><><><><><><><><><><><><><><

 MD STRESS (KBAR)

 ><><><><><><><><><><><><><><><><><><><><><><><><><><><><><><><><><><><

+0.45469857    +1.1975614     -0.35888752    
+1.1975614     -0.91822872    +1.1147151     
-0.35888752    +1.1147151     -0.30811611    



 -------------------------------------------
 STEP OF MOLECULAR DYNAMICS : 5
 -------------------------------------------
 NEW-OLD atomic charge density approx. for the potential !
 searching radius is (Bohr))              = +14.89
 searching radius unit is (Bohr))         = +1.8897261
+289
 DONE : INIT SCF Time : +53.5397 (SEC)


 LCAO ALGORITHM --------------- ION=+6    ELEC=+1  --------------------------------

 Density error is +0.00883976873523

 LCAO ALGORITHM --------------- ION=+6    ELEC=+2  --------------------------------

 Density error is +0.00502947935996

 LCAO ALGORITHM --------------- ION=+6    ELEC=+3  --------------------------------

 Density error is +0.000753746313884

 LCAO ALGORITHM --------------- ION=+6    ELEC=+4  --------------------------------

 Density error is +0.000210259804691

 LCAO ALGORITHM --------------- ION=+6    ELEC=+5  --------------------------------

 Density error is +6.11370014609e-05

 LCAO ALGORITHM --------------- ION=+6    ELEC=+6  --------------------------------

 Density error is +9.24537375299e-06

 LCAO ALGORITHM --------------- ION=+6    ELEC=+7  --------------------------------

 Density error is +8.64411740839e-07

 LCAO ALGORITHM --------------- ION=+6    ELEC=+8  --------------------------------

 Density error is +1.64220254274e-07

 LCAO ALGORITHM --------------- ION=+6    ELEC=+9  --------------------------------

 Density error is +1.59008667821e-08

 charge density convergence is achieved
 final etot is -219.734952623 eV

 ><><><><><><><><><><><><><><><><><><><><><><><><><><><><><><><><><><><

    TOTAL-FORCE (eV/Angstrom)

 ><><><><><><><><><><><><><><><><><><><><><><><><><><><><><><><><><><><

 atom    x              y              z              
 H1      -0.2524197          +0.32672125         -0.48067733         
 H2      -0.047201852        -0.2044159          -0.15329392         
 H3      +0.28410266         -0.10209622         +0.097669395        
 H4      -0.24038049         +0.81066433         -0.11371602         
 C1      +0.25589938         -0.83087346         +0.65001787         


 ><><><><><><><><><><><><><><><><><><><><><><><><><><><><><><><><><><><

 TOTAL-STRESS (KBAR)

 ><><><><><><><><><><><><><><><><><><><><><><><><><><><><><><><><><><><

 -0.027605              +0.936051              -0.029007              
 +0.936051              -1.274494              +0.729957              
 -0.029007              +0.729957              +0.455396              
 TOTAL-PRESSURE: -0.282234 KBAR


 ------------------------------------------------------------------------------------------------
 Energy              Potential           Kinetic             Temperature         Pressure (KBAR)     
 -8.0717977          -8.0751077          +0.0033099998       +174.20233          -0.18602913         
 ------------------------------------------------------------------------------------------------

output Pressure for check!
Virtual Pressure is -0.18602913 Kbar 
Virial Term is -0.28223426 Kbar 
Kenetic Term is +0.096205124 Kbar 


 ><><><><><><><><><><><><><><><><><><><><><><><><><><><><><><><><><><><

 MD STRESS (KBAR)

 ><><><><><><><><><><><><><><><><><><><><><><><><><><><><><><><><><><><

+0.016698872   +0.9448382     -0.083115833   
+0.9448382     -1.1771068     +0.6526888     
-0.083115833   +0.6526888     +0.60232054    



 -------------------------------------------
 STEP OF MOLECULAR DYNAMICS : 6
 -------------------------------------------
 NEW-OLD atomic charge density approx. for the potential !
 searching radius is (Bohr))              = +14.89
 searching radius unit is (Bohr))         = +1.8897261
+289
 DONE : INIT SCF Time : +63.697 (SEC)


 LCAO ALGORITHM --------------- ION=+7    ELEC=+1  --------------------------------

 Density error is +0.00968495616412

 LCAO ALGORITHM --------------- ION=+7    ELEC=+2  --------------------------------

 Density error is +0.00553364329693

 LCAO ALGORITHM --------------- ION=+7    ELEC=+3  --------------------------------

 Density error is +0.000975539969927

 LCAO ALGORITHM --------------- ION=+7    ELEC=+4  --------------------------------

 Density error is +0.000298645133458

 LCAO ALGORITHM --------------- ION=+7    ELEC=+5  --------------------------------

 Density error is +7.28777921408e-05

 LCAO ALGORITHM --------------- ION=+7    ELEC=+6  --------------------------------

 Density error is +1.0071536742e-05

 LCAO ALGORITHM --------------- ION=+7    ELEC=+7  --------------------------------

 Density error is +1.02122854865e-06

 LCAO ALGORITHM --------------- ION=+7    ELEC=+8  --------------------------------

 Density error is +2.18773571078e-07

 LCAO ALGORITHM --------------- ION=+7    ELEC=+9  --------------------------------

 Density error is +2.22116842592e-08

 charge density convergence is achieved
 final etot is -219.735784823 eV

 ><><><><><><><><><><><><><><><><><><><><><><><><><><><><><><><><><><><

    TOTAL-FORCE (eV/Angstrom)

 ><><><><><><><><><><><><><><><><><><><><><><><><><><><><><><><><><><><

 atom    x              y              z              
 H1      -0.26963854         +0.34863165         -0.50875001         
 H2      +0.20224916         -0.18523732         -0.17183033         
 H3      +0.14720853         -0.41304946         +0.093751788        
 H4      +0.021358122        +0.38643922         +0.60170528         
 C1      -0.10117728         -0.13678409         -0.014876721        


 ><><><><><><><><><><><><><><><><><><><><><><><><><><><><><><><><><><><

 TOTAL-STRESS (KBAR)

 ><><><><><><><><><><><><><><><><><><><><><><><><><><><><><><><><><><><

 -0.422717              +0.503587              +0.380834              
 +0.503587              -1.395927              +0.092188              
 +0.380834              +0.092188              +1.483498              
 TOTAL-PRESSURE: -0.111715 KBAR


 ------------------------------------------------------------------------------------------------
 Energy              Potential           Kinetic             Temperature         Pressure (KBAR)     
 -8.0718057          -8.0751383          +0.0033325611       +175.38972          -0.014854205        
 ------------------------------------------------------------------------------------------------

output Pressure for check!
Virtual Pressure is -0.014854205 Kbar 
Virial Term is -0.11171508 Kbar 
Kenetic Term is +0.09686087 Kbar 


 ><><><><><><><><><><><><><><><><><><><><><><><><><><><><><><><><><><><

 MD STRESS (KBAR)

 ><><><><><><><><><><><><><><><><><><><><><><><><><><><><><><><><><><><

-0.39041289    +0.52449016    +0.33782427    
+0.52449016    -1.2673176     -0.01095026    
+0.33782427    -0.01095026    +1.6131679     



 -------------------------------------------
 STEP OF MOLECULAR DYNAMICS : 7
 -------------------------------------------
 NEW-OLD atomic charge density approx. for the potential !
 searching radius is (Bohr))              = +14.89
 searching radius unit is (Bohr))         = +1.8897261
+289
 DONE : INIT SCF Time : +73.8202 (SEC)


 LCAO ALGORITHM --------------- ION=+8    ELEC=+1  --------------------------------

 Density error is +0.00919292589727

 LCAO ALGORITHM --------------- ION=+8    ELEC=+2  --------------------------------

 Density error is +0.00529181336351

 LCAO ALGORITHM --------------- ION=+8    ELEC=+3  --------------------------------

 Density error is +0.00102378662099

 LCAO ALGORITHM --------------- ION=+8    ELEC=+4  --------------------------------

 Density error is +0.000292003524195

 LCAO ALGORITHM --------------- ION=+8    ELEC=+5  --------------------------------

 Density error is +6.52188257645e-05

 LCAO ALGORITHM --------------- ION=+8    ELEC=+6  --------------------------------

 Density error is +8.74267370476e-06

 LCAO ALGORITHM --------------- ION=+8    ELEC=+7  --------------------------------

 Density error is +9.48600578839e-07

 LCAO ALGORITHM --------------- ION=+8    ELEC=+8  --------------------------------

 Density error is +2.11120475948e-07

 LCAO ALGORITHM --------------- ION=+8    ELEC=+9  --------------------------------

 Density error is +2.86059789261e-08

 charge density convergence is achieved
 final etot is -219.720782931 eV

 ><><><><><><><><><><><><><><><><><><><><><><><><><><><><><><><><><><><

    TOTAL-FORCE (eV/Angstrom)

 ><><><><><><><><><><><><><><><><><><><><><><><><><><><><><><><><><><><

 atom    x              y              z              
 H1      -0.27762856         +0.36095387         -0.46908227         
 H2      +0.38794236         -0.1415472          -0.17718222         
 H3      +0.032174262        -0.6142604          +0.081111664        
 H4      +0.32100776         -0.090928135        +1.2995176          
 C1      -0.46349583         +0.48578187         -0.73436476         


 ><><><><><><><><><><><><><><><><><><><><><><><><><><><><><><><><><><><

 TOTAL-STRESS (KBAR)

 ><><><><><><><><><><><><><><><><><><><><><><><><><><><><><><><><><><><

 -0.657859              +0.053115              +0.813456              
 +0.053115              -1.303871              -0.572247              
 +0.813456              -0.572247              +2.349941              
 TOTAL-PRESSURE: +0.129404 KBAR


 ------------------------------------------------------------------------------------------------
 Energy              Potential           Kinetic             Temperature         Pressure (KBAR)     
 -8.0717336          -8.0745869          +0.0028533605       +150.16981          +0.21233668         
 ------------------------------------------------------------------------------------------------

output Pressure for check!
Virtual Pressure is +0.21233668 Kbar 
Virial Term is +0.12940377 Kbar 
Kenetic Term is +0.082932906 Kbar 


 ><><><><><><><><><><><><><><><><><><><><><><><><><><><><><><><><><><><

 MD STRESS (KBAR)

 ><><><><><><><><><><><><><><><><><><><><><><><><><><><><><><><><><><><

-0.62686977    +0.076499187   +0.78786397    
+0.076499187   -1.1628584     -0.6649731     
+0.78786397    -0.6649731     +2.4267382     



 -------------------------------------------
 STEP OF MOLECULAR DYNAMICS : 8
 -------------------------------------------
 NEW-OLD atomic charge density approx. for the potential !
 searching radius is (Bohr))              = +14.89
 searching radius unit is (Bohr))         = +1.8897261
+289
 DONE : INIT SCF Time : +83.9342 (SEC)


 LCAO ALGORITHM --------------- ION=+9    ELEC=+1  --------------------------------

 Density error is +0.007713887791

 LCAO ALGORITHM --------------- ION=+9    ELEC=+2  --------------------------------

 Density error is +0.00445492051679

 LCAO ALGORITHM --------------- ION=+9    ELEC=+3  --------------------------------

 Density error is +0.000652826863411

 LCAO ALGORITHM --------------- ION=+9    ELEC=+4  --------------------------------

 Density error is +0.000179109721207

 LCAO ALGORITHM --------------- ION=+9    ELEC=+5  --------------------------------

 Density error is +4.03144283334e-05

 LCAO ALGORITHM --------------- ION=+9    ELEC=+6  --------------------------------

 Density error is +5.32422615421e-06

 LCAO ALGORITHM --------------- ION=+9    ELEC=+7  --------------------------------

 Density error is +5.29269905627e-07

 LCAO ALGORITHM --------------- ION=+9    ELEC=+8  --------------------------------

 Density error is +8.70485438609e-08

 charge density convergence is achieved
 final etot is -219.715936156 eV

 ><><><><><><><><><><><><><><><><><><><><><><><><><><><><><><><><><><><

    TOTAL-FORCE (eV/Angstrom)

 ><><><><><><><><><><><><><><><><><><><><><><><><><><><><><><><><><><><

 atom    x              y              z              
 H1      -0.27034601         +0.35599814         -0.36092128         
 H2      +0.45455379         -0.081440622        -0.1641534          
 H3      -0.039016138        -0.64204343         +0.060305695        
 H4      +0.51365003         -0.39744236         +1.6437902          
 C1      -0.65884168         +0.76492827         -1.1790212          


 ><><><><><><><><><><><><><><><><><><><><><><><><><><><><><><><><><><><

 TOTAL-STRESS (KBAR)

 ><><><><><><><><><><><><><><><><><><><><><><><><><><><><><><><><><><><

 -0.694441              -0.248428              +1.071692              
 -0.248428              -1.075977              -0.975550              
 +1.071692              -0.975550              +2.649159              
 TOTAL-PRESSURE: +0.292913 KBAR


 ------------------------------------------------------------------------------------------------
 Energy              Potential           Kinetic             Temperature         Pressure (KBAR)     
 -8.071662           -8.0744088          +0.0027468436       +144.56393          +0.37275049         
 ------------------------------------------------------------------------------------------------

output Pressure for check!
Virtual Pressure is +0.37275049 Kbar 
Virial Term is +0.2929135 Kbar 
Kenetic Term is +0.079836995 Kbar 


 ><><><><><><><><><><><><><><><><><><><><><><><><><><><><><><><><><><><

 MD STRESS (KBAR)

 ><><><><><><><><><><><><><><><><><><><><><><><><><><><><><><><><><><><

-0.64643895    -0.2323384     +1.0809771     
-0.2323384     -0.93355434    -1.0412126     
+1.0809771     -1.0412126     +2.6982448     



 -------------------------------------------
 STEP OF MOLECULAR DYNAMICS : 9
 -------------------------------------------
 NEW-OLD atomic charge density approx. for the potential !
 searching radius is (Bohr))              = +14.89
 searching radius unit is (Bohr))         = +1.8897261
+289
 DONE : INIT SCF Time : +93.1435 (SEC)


 LCAO ALGORITHM --------------- ION=+10   ELEC=+1  --------------------------------

 Density error is +0.0079444897718

 LCAO ALGORITHM --------------- ION=+10   ELEC=+2  --------------------------------

 Density error is +0.00461154262487

 LCAO ALGORITHM --------------- ION=+10   ELEC=+3  --------------------------------

 Density error is +0.000405328881881

 LCAO ALGORITHM --------------- ION=+10   ELEC=+4  --------------------------------

 Density error is +9.9503766106e-05

 LCAO ALGORITHM --------------- ION=+10   ELEC=+5  --------------------------------

 Density error is +3.4297620295e-05

 LCAO ALGORITHM --------------- ION=+10   ELEC=+6  --------------------------------

 Density error is +5.79310763837e-06

 LCAO ALGORITHM --------------- ION=+10   ELEC=+7  --------------------------------

 Density error is +4.10866732144e-07

 LCAO ALGORITHM --------------- ION=+10   ELEC=+8  --------------------------------

 Density error is +7.38293022853e-08

 charge density convergence is achieved
 final etot is -219.744399677 eV

 ><><><><><><><><><><><><><><><><><><><><><><><><><><><><><><><><><><><

    TOTAL-FORCE (eV/Angstrom)

 ><><><><><><><><><><><><><><><><><><><><><><><><><><><><><><><><><><><

 atom    x              y              z              
 H1      -0.2396308          +0.32316781         -0.20565452         
 H2      +0.38396891         -0.015516614        -0.13113566         
 H3      -0.061006475        -0.4816701          +0.034567303        
 H4      +0.46916587         -0.37676232         +1.3941351          
 C1      -0.5524975          +0.55078123         -1.0919122          


 ><><><><><><><><><><><><><><><><><><><><><><><><><><><><><><><><><><><

 TOTAL-STRESS (KBAR)

 ><><><><><><><><><><><><><><><><><><><><><><><><><><><><><><><><><><><

 -0.572032              -0.286839              +0.983955              
 -0.286839              -0.789218              -0.924012              
 +0.983955              -0.924012              +2.131272              
 TOTAL-PRESSURE: +0.256674 KBAR


 ------------------------------------------------------------------------------------------------
 Energy              Potential           Kinetic             Temperature         Pressure (KBAR)     
 -8.071704           -8.0754548          +0.0037508895       +197.40596          +0.36569332         
 ------------------------------------------------------------------------------------------------

output Pressure for check!
Virtual Pressure is +0.36569332 Kbar 
Virial Term is +0.25667374 Kbar 
Kenetic Term is +0.10901958 Kbar 


 ><><><><><><><><><><><><><><><><><><><><><><><><><><><><><><><><><><><

 MD STRESS (KBAR)

 ><><><><><><><><><><><><><><><><><><><><><><><><><><><><><><><><><><><

-0.48785254    -0.28865149    +1.0509287     
-0.28865149    -0.63744515    -0.97805171    
+1.0509287     -0.97805171    +2.2223777     



 -------------------------------------------
 STEP OF MOLECULAR DYNAMICS : 10
 -------------------------------------------
 NEW-OLD atomic charge density approx. for the potential !
 searching radius is (Bohr))              = +14.89
 searching radius unit is (Bohr))         = +1.8897261
+289
 DONE : INIT SCF Time : +102.298 (SEC)


 LCAO ALGORITHM --------------- ION=+11   ELEC=+1  --------------------------------

 Density error is +0.0105730475162

 LCAO ALGORITHM --------------- ION=+11   ELEC=+2  --------------------------------

 Density error is +0.00603667255008

 LCAO ALGORITHM --------------- ION=+11   ELEC=+3  --------------------------------

 Density error is +0.00099838911328

 LCAO ALGORITHM --------------- ION=+11   ELEC=+4  --------------------------------

 Density error is +0.000313946965752

 LCAO ALGORITHM --------------- ION=+11   ELEC=+5  --------------------------------

 Density error is +7.13900215942e-05

 LCAO ALGORITHM --------------- ION=+11   ELEC=+6  --------------------------------

 Density error is +9.11981841832e-06

 LCAO ALGORITHM --------------- ION=+11   ELEC=+7  --------------------------------

 Density error is +7.23382108289e-07

 LCAO ALGORITHM --------------- ION=+11   ELEC=+8  --------------------------------

 Density error is +9.12533290445e-08

 charge density convergence is achieved
 final etot is -219.784525697 eV

 ><><><><><><><><><><><><><><><><><><><><><><><><><><><><><><><><><><><

    TOTAL-FORCE (eV/Angstrom)

 ><><><><><><><><><><><><><><><><><><><><><><><><><><><><><><><><><><><

 atom    x              y              z              
 H1      -0.18040599         +0.25554359         -0.039113836        
 H2      +0.1963462          +0.045581238        -0.080190901        
 H3      -0.04243704         -0.16732197         +0.010013457        
 H4      +0.20877376         -0.10841819         +0.6672478          
 C1      -0.18227693         -0.025384655        -0.55795652         


 ><><><><><><><><><><><><><><><><><><><><><><><><><><><><><><><><><><><

 TOTAL-STRESS (KBAR)

 ><><><><><><><><><><><><><><><><><><><><><><><><><><><><><><><><><><><

 -0.341092              -0.095476              +0.555929              
 -0.095476              -0.420198              -0.497038              
 +0.555929              -0.497038              +0.959300              
 TOTAL-PRESSURE: +0.066003 KBAR


 ------------------------------------------------------------------------------------------------
 Energy              Potential           Kinetic             Temperature         Pressure (KBAR)     
 -8.0717839          -8.0769294          +0.0051455134       +270.80377          +0.21555759         
 ------------------------------------------------------------------------------------------------

output Pressure for check!
Virtual Pressure is +0.21555759 Kbar 
Virial Term is +0.066003274 Kbar 
Kenetic Term is +0.14955432 Kbar 


 ><><><><><><><><><><><><><><><><><><><><><><><><><><><><><><><><><><><

 MD STRESS (KBAR)

 ><><><><><><><><><><><><><><><><><><><><><><><><><><><><><><><><><><><

-0.22093209    -0.11619608    +0.67694233    
-0.11619608    -0.25144592    -0.55425856    
+0.67694233    -0.55425856    +1.1190508     



 -------------------------------------------
 STEP OF MOLECULAR DYNAMICS : 11
 -------------------------------------------
 NEW-OLD atomic charge density approx. for the potential !
 searching radius is (Bohr))              = +14.89
 searching radius unit is (Bohr))         = +1.8897261
+289
 DONE : INIT SCF Time : +111.5 (SEC)


 LCAO ALGORITHM --------------- ION=+12   ELEC=+1  --------------------------------

 Density error is +0.0120231167543

 LCAO ALGORITHM --------------- ION=+12   ELEC=+2  --------------------------------

 Density error is +0.00683157695909

 LCAO ALGORITHM --------------- ION=+12   ELEC=+3  --------------------------------

 Density error is +0.00121837523048

 LCAO ALGORITHM --------------- ION=+12   ELEC=+4  --------------------------------

 Density error is +0.000381705380789

 LCAO ALGORITHM --------------- ION=+12   ELEC=+5  --------------------------------

 Density error is +8.65673687865e-05

 LCAO ALGORITHM --------------- ION=+12   ELEC=+6  --------------------------------

 Density error is +1.06998939425e-05

 LCAO ALGORITHM --------------- ION=+12   ELEC=+7  --------------------------------

 Density error is +8.17488185301e-07

 LCAO ALGORITHM --------------- ION=+12   ELEC=+8  --------------------------------

 Density error is +6.0285135801e-08

 charge density convergence is achieved
 final etot is -219.79649753 eV

 ><><><><><><><><><><><><><><><><><><><><><><><><><><><><><><><><><><><

    TOTAL-FORCE (eV/Angstrom)

 ><><><><><><><><><><><><><><><><><><><><><><><><><><><><><><><><><><><

 atom    x              y              z              
 H1      -0.094499335        +0.15473294         +0.10398065         
 H2      -0.051339317        +0.094680891        -0.017422958        
 H3      -0.0073816672       +0.21494657         -0.0071682118       
 H4      -0.12116249         +0.19336089         -0.18141512         
 C1      +0.2743828          -0.65772129         +0.10202563         


 ><><><><><><><><><><><><><><><><><><><><><><><><><><><><><><><><><><><

 TOTAL-STRESS (KBAR)

 ><><><><><><><><><><><><><><><><><><><><><><><><><><><><><><><><><><><

 -0.052874              +0.172090              -0.039086              
 +0.172090              +0.054937              +0.049524              
 -0.039086              +0.049524              -0.408437              
 TOTAL-PRESSURE: -0.135458 KBAR


 ------------------------------------------------------------------------------------------------
 Energy              Potential           Kinetic             Temperature         Pressure (KBAR)     
 -8.0717696          -8.0773694          +0.0055998278       +294.71393          +0.027300846        
 ------------------------------------------------------------------------------------------------

output Pressure for check!
Virtual Pressure is +0.027300846 Kbar 
Virial Term is -0.13545812 Kbar 
Kenetic Term is +0.16275896 Kbar 


 ><><><><><><><><><><><><><><><><><><><><><><><><><><><><><><><><><><><

 MD STRESS (KBAR)

 ><><><><><><><><><><><><><><><><><><><><><><><><><><><><><><><><><><><

+0.078057601   +0.14372442    +0.096499778   
+0.14372442    +0.23455713    -0.005456963   
+0.096499778   -0.005456963   -0.23071219    



 -------------------------------------------
 STEP OF MOLECULAR DYNAMICS : 12
 -------------------------------------------
 NEW-OLD atomic charge density approx. for the potential !
 searching radius is (Bohr))              = +14.89
 searching radius unit is (Bohr))         = +1.8897261
+289
 DONE : INIT SCF Time : +120.691 (SEC)


 LCAO ALGORITHM --------------- ION=+13   ELEC=+1  --------------------------------

 Density error is +0.0113903398574

 LCAO ALGORITHM --------------- ION=+13   ELEC=+2  --------------------------------

 Density error is +0.00646524632395

 LCAO ALGORITHM --------------- ION=+13   ELEC=+3  --------------------------------

 Density error is +0.00109369501479

 LCAO ALGORITHM --------------- ION=+13   ELEC=+4  --------------------------------

 Density error is +0.000342999431486

 LCAO ALGORITHM --------------- ION=+13   ELEC=+5  --------------------------------

 Density error is +7.82621208785e-05

 LCAO ALGORITHM --------------- ION=+13   ELEC=+6  --------------------------------

 Density error is +1.02354555294e-05

 LCAO ALGORITHM --------------- ION=+13   ELEC=+7  --------------------------------

 Density error is +8.41601930902e-07

 LCAO ALGORITHM --------------- ION=+13   ELEC=+8  --------------------------------

 Density error is +1.21152710975e-07

 LCAO ALGORITHM --------------- ION=+13   ELEC=+9  --------------------------------

 Density error is +1.83841138244e-08

 charge density convergence is achieved
 final etot is -219.773960174 eV

 ><><><><><><><><><><><><><><><><><><><><><><><><><><><><><><><><><><><

    TOTAL-FORCE (eV/Angstrom)

 ><><><><><><><><><><><><><><><><><><><><><><><><><><><><><><><><><><><

 atom    x              y              z              
 H1      +0.0091443214       +0.031332511        +0.20238288         
 H2      -0.27544938         +0.13143243         +0.046753649        
 H3      +0.0068840631       +0.53705559         -0.014536788        
 H4      -0.38811541         +0.38037735         -0.86598637         
 C1      +0.64753641         -1.0801979          +0.63138663         


 ><><><><><><><><><><><><><><><><><><><><><><><><><><><><><><><><><><><

 TOTAL-STRESS (KBAR)

 ><><><><><><><><><><><><><><><><><><><><><><><><><><><><><><><><><><><

 +0.203998              +0.349731              -0.602720              
 +0.349731              +0.534026              +0.500381              
 -0.602720              +0.500381              -1.552086              
 TOTAL-PRESSURE: -0.271354 KBAR


 ------------------------------------------------------------------------------------------------
 Energy              Potential           Kinetic             Temperature         Pressure (KBAR)     
 -8.0716756          -8.0765412          +0.0048655893       +256.07162          -0.12993544         
 ------------------------------------------------------------------------------------------------

output Pressure for check!
Virtual Pressure is -0.12993544 Kbar 
Virial Term is -0.27135376 Kbar 
Kenetic Term is +0.14141832 Kbar 


 ><><><><><><><><><><><><><><><><><><><><><><><><><><><><><><><><><><><

 MD STRESS (KBAR)

 ><><><><><><><><><><><><><><><><><><><><><><><><><><><><><><><><><><><

+0.31537779    +0.32515483    -0.49734841    
+0.32515483    +0.71747895    +0.45399915    
-0.49734841    +0.45399915    -1.4226631     



 -------------------------------------------
 STEP OF MOLECULAR DYNAMICS : 13
 -------------------------------------------
 NEW-OLD atomic charge density approx. for the potential !
 searching radius is (Bohr))              = +14.89
 searching radius unit is (Bohr))         = +1.8897261
+289
 DONE : INIT SCF Time : +130.769 (SEC)


 LCAO ALGORITHM --------------- ION=+14   ELEC=+1  --------------------------------

 Density error is +0.00942629832898

 LCAO ALGORITHM --------------- ION=+14   ELEC=+2  --------------------------------

 Density error is +0.00537092628233

 LCAO ALGORITHM --------------- ION=+14   ELEC=+3  --------------------------------

 Density error is +0.000775652239956

 LCAO ALGORITHM --------------- ION=+14   ELEC=+4  --------------------------------

 Density error is +0.00023970218496

 LCAO ALGORITHM --------------- ION=+14   ELEC=+5  --------------------------------

 Density error is +5.44847222092e-05

 LCAO ALGORITHM --------------- ION=+14   ELEC=+6  --------------------------------

 Density error is +8.14531931075e-06

 LCAO ALGORITHM --------------- ION=+14   ELEC=+7  --------------------------------

 Density error is +6.8318183936e-07

 LCAO ALGORITHM --------------- ION=+14   ELEC=+8  --------------------------------

 Density error is +1.06008257122e-07

 LCAO ALGORITHM --------------- ION=+14   ELEC=+9  --------------------------------

 Density error is +1.32247714122e-08

 charge density convergence is achieved
 final etot is -219.743681798 eV

 ><><><><><><><><><><><><><><><><><><><><><><><><><><><><><><><><><><><

    TOTAL-FORCE (eV/Angstrom)

 ><><><><><><><><><><><><><><><><><><><><><><><><><><><><><><><><><><><

 atom    x              y              z              
 H1      +0.11675811         -0.097909313        +0.25269787         
 H2      -0.39241662         +0.16183554         +0.099727954        
 H3      -0.033836789        +0.67406599         -0.014608013        
 H4      -0.53065272         +0.41304844         -1.2682843          
 C1      +0.84014802         -1.1510407          +0.93046644         


 ><><><><><><><><><><><><><><><><><><><><><><><><><><><><><><><><><><><

 TOTAL-STRESS (KBAR)

 ><><><><><><><><><><><><><><><><><><><><><><><><><><><><><><><><><><><

 +0.320681              +0.328253              -0.998025              
 +0.328253              +0.835090              +0.754158              
 -0.998025              +0.754158              -2.246469              
 TOTAL-PRESSURE: -0.363566 KBAR


 ------------------------------------------------------------------------------------------------
 Energy              Potential           Kinetic             Temperature         Pressure (KBAR)     
 -8.0715908          -8.0754285          +0.0038376762       +201.97347          -0.25202373         
 ------------------------------------------------------------------------------------------------

output Pressure for check!
Virtual Pressure is -0.25202373 Kbar 
Virial Term is -0.36356577 Kbar 
Kenetic Term is +0.11154204 Kbar 


 ><><><><><><><><><><><><><><><><><><><><><><><><><><><><><><><><><><><

 MD STRESS (KBAR)

 ><><><><><><><><><><><><><><><><><><><><><><><><><><><><><><><><><><><

+0.39930911    +0.30927033    -0.94276772    
+0.30927033    +1.0271621     +0.70581002    
-0.94276772    +0.70581002    -2.1825424     



 -------------------------------------------
 STEP OF MOLECULAR DYNAMICS : 14
 -------------------------------------------
 NEW-OLD atomic charge density approx. for the potential !
 searching radius is (Bohr))              = +14.89
 searching radius unit is (Bohr))         = +1.8897261
+289
 DONE : INIT SCF Time : +140.887 (SEC)


 LCAO ALGORITHM --------------- ION=+15   ELEC=+1  --------------------------------

 Density error is +0.00799666754246

 LCAO ALGORITHM --------------- ION=+15   ELEC=+2  --------------------------------

 Density error is +0.00461823069251

 LCAO ALGORITHM --------------- ION=+15   ELEC=+3  --------------------------------

 Density error is +0.000350799832672

 LCAO ALGORITHM --------------- ION=+15   ELEC=+4  --------------------------------

 Density error is +0.000129906143333

 LCAO ALGORITHM --------------- ION=+15   ELEC=+5  --------------------------------

 Density error is +3.07671552071e-05

 LCAO ALGORITHM --------------- ION=+15   ELEC=+6  --------------------------------

 Density error is +3.60823570261e-06

 LCAO ALGORITHM --------------- ION=+15   ELEC=+7  --------------------------------

 Density error is +3.65557830912e-07

 LCAO ALGORITHM --------------- ION=+15   ELEC=+8  --------------------------------

 Density error is +4.56654901405e-08

 charge density convergence is achieved
 final etot is -219.731648151 eV

 ><><><><><><><><><><><><><><><><><><><><><><><><><><><><><><><><><><><

    TOTAL-FORCE (eV/Angstrom)

 ><><><><><><><><><><><><><><><><><><><><><><><><><><><><><><><><><><><

 atom    x              y              z              
 H1      +0.21301289         -0.21450032         +0.26687325         
 H2      -0.35716222         +0.19231798         +0.13125731         
 H3      -0.13577219         +0.57397332         -0.012587123        
 H4      -0.53032574         +0.30270552         -1.3631139          
 C1      +0.81024726         -0.8544965          +0.97757045         


 ><><><><><><><><><><><><><><><><><><><><><><><><><><><><><><><><><><><

 TOTAL-STRESS (KBAR)

 ><><><><><><><><><><><><><><><><><><><><><><><><><><><><><><><><><><><

 +0.245487              +0.080276              -1.146927              
 +0.080276              +0.844540              +0.781484              
 -1.146927              +0.781484              -2.419591              
 TOTAL-PRESSURE: -0.443188 KBAR


 ------------------------------------------------------------------------------------------------
 Energy              Potential           Kinetic             Temperature         Pressure (KBAR)     
 -8.0715672          -8.0749862          +0.003419064        +179.94229          -0.3438132          
 ------------------------------------------------------------------------------------------------

output Pressure for check!
Virtual Pressure is -0.3438132 Kbar 
Virial Term is -0.44318827 Kbar 
Kenetic Term is +0.099375077 Kbar 


 ><><><><><><><><><><><><><><><><><><><><><><><><><><><><><><><><><><><

 MD STRESS (KBAR)

 ><><><><><><><><><><><><><><><><><><><><><><><><><><><><><><><><><><><

+0.29931993    +0.059991188   -1.1331992     
+0.059991188   +1.0520856     +0.7107042     
-1.1331992     +0.7107042     -2.3828451     



 -------------------------------------------
 STEP OF MOLECULAR DYNAMICS : 15
 -------------------------------------------
 NEW-OLD atomic charge density approx. for the potential !
 searching radius is (Bohr))              = +14.89
 searching radius unit is (Bohr))         = +1.8897261
+289
 DONE : INIT SCF Time : +150.054 (SEC)


 LCAO ALGORITHM --------------- ION=+16   ELEC=+1  --------------------------------

 Density error is +0.00871602522046

 LCAO ALGORITHM --------------- ION=+16   ELEC=+2  --------------------------------

 Density error is +0.00502074955074

 LCAO ALGORITHM --------------- ION=+16   ELEC=+3  --------------------------------

 Density error is +0.000382803246549

 LCAO ALGORITHM --------------- ION=+16   ELEC=+4  --------------------------------

 Density error is +9.41357680288e-05

 LCAO ALGORITHM --------------- ION=+16   ELEC=+5  --------------------------------

 Density error is +3.14694625596e-05

 LCAO ALGORITHM --------------- ION=+16   ELEC=+6  --------------------------------

 Density error is +5.34793388933e-06

 LCAO ALGORITHM --------------- ION=+16   ELEC=+7  --------------------------------

 Density error is +5.87615843592e-07

 LCAO ALGORITHM --------------- ION=+16   ELEC=+8  --------------------------------

 Density error is +7.3522606176e-08

 charge density convergence is achieved
 final etot is -219.739955795 eV

 ><><><><><><><><><><><><><><><><><><><><><><><><><><><><><><><><><><><

    TOTAL-FORCE (eV/Angstrom)

 ><><><><><><><><><><><><><><><><><><><><><><><><><><><><><><><><><><><

 atom    x              y              z              
 H1      +0.28450695         -0.30317179         +0.26428798         
 H2      -0.18742121         +0.22246843         +0.1379063          
 H3      -0.26849921         +0.29073657         -0.012382036        
 H4      -0.37725364         +0.067364319        -1.1440987          
 C1      +0.5486671          -0.27739753         +0.75428645         


 ><><><><><><><><><><><><><><><><><><><><><><><><><><><><><><><><><><><

 TOTAL-STRESS (KBAR)

 ><><><><><><><><><><><><><><><><><><><><><><><><><><><><><><><><><><><

 +0.038223              -0.341662              -1.008109              
 -0.341662              +0.603925              +0.583901              
 -1.008109              +0.583901              -2.075733              
 TOTAL-PRESSURE: -0.477861 KBAR


 ------------------------------------------------------------------------------------------------
 Energy              Potential           Kinetic             Temperature         Pressure (KBAR)     
 -8.071594           -8.0752915          +0.0036975626       +194.59942          -0.37039185         
 ------------------------------------------------------------------------------------------------

output Pressure for check!
Virtual Pressure is -0.37039185 Kbar 
Virial Term is -0.47786149 Kbar 
Kenetic Term is +0.10746964 Kbar 


 ><><><><><><><><><><><><><><><><><><><><><><><><><><><><><><><><><><><

 MD STRESS (KBAR)

 ><><><><><><><><><><><><><><><><><><><><><><><><><><><><><><><><><><><

+0.084696691   -0.37051431    -1.0151735     
-0.37051431    +0.81525796    +0.4811139     
-1.0151735     +0.4811139     -2.0111302     



 -------------------------------------------
 STEP OF MOLECULAR DYNAMICS : 16
 -------------------------------------------
 NEW-OLD atomic charge density approx. for the potential !
 searching radius is (Bohr))              = +14.89
 searching radius unit is (Bohr))         = +1.8897261
+289
 DONE : INIT SCF Time : +159.257 (SEC)


 LCAO ALGORITHM --------------- ION=+17   ELEC=+1  --------------------------------

 Density error is +0.010000045752

 LCAO ALGORITHM --------------- ION=+17   ELEC=+2  --------------------------------

 Density error is +0.00572000885427

 LCAO ALGORITHM --------------- ION=+17   ELEC=+3  --------------------------------

 Density error is +0.000691099098093

 LCAO ALGORITHM --------------- ION=+17   ELEC=+4  --------------------------------

 Density error is +0.000247203719372

 LCAO ALGORITHM --------------- ION=+17   ELEC=+5  --------------------------------

 Density error is +5.97422115711e-05

 LCAO ALGORITHM --------------- ION=+17   ELEC=+6  --------------------------------

 Density error is +8.17218451423e-06

 LCAO ALGORITHM --------------- ION=+17   ELEC=+7  --------------------------------

 Density error is +8.55090445618e-07

 LCAO ALGORITHM --------------- ION=+17   ELEC=+8  --------------------------------

 Density error is +1.6604817227e-07

 LCAO ALGORITHM --------------- ION=+17   ELEC=+9  --------------------------------

 Density error is +1.37049134603e-08

 charge density convergence is achieved
 final etot is -219.749144669 eV

 ><><><><><><><><><><><><><><><><><><><><><><><><><><><><><><><><><><><

    TOTAL-FORCE (eV/Angstrom)

 ><><><><><><><><><><><><><><><><><><><><><><><><><><><><><><><><><><><

 atom    x              y              z              
 H1      +0.32299514         -0.35616389         +0.26074567         
 H2      +0.047885601        +0.24305921         +0.12417544         
 H3      -0.38433548         -0.056669641        -0.014156418        
 H4      -0.066574723        -0.27185032         -0.61761815         
 C1      +0.080029468        +0.44162465         +0.24685346         


 ><><><><><><><><><><><><><><><><><><><><><><><><><><><><><><><><><><><

 TOTAL-STRESS (KBAR)

 ><><><><><><><><><><><><><><><><><><><><><><><><><><><><><><><><><><><

 -0.158264              -0.833761              -0.582314              
 -0.833761              +0.267465              +0.193819              
 -0.582314              +0.193819              -1.278703              
 TOTAL-PRESSURE: -0.389834 KBAR


 ------------------------------------------------------------------------------------------------
 Energy              Potential           Kinetic             Temperature         Pressure (KBAR)     
 -8.071621           -8.0756292          +0.0040081837       +210.94713          -0.27333613         
 ------------------------------------------------------------------------------------------------

output Pressure for check!
Virtual Pressure is -0.27333613 Kbar 
Virial Term is -0.38983397 Kbar 
Kenetic Term is +0.11649784 Kbar 


 ><><><><><><><><><><><><><><><><><><><><><><><><><><><><><><><><><><><

 MD STRESS (KBAR)

 ><><><><><><><><><><><><><><><><><><><><><><><><><><><><><><><><><><><

-0.10422827    -0.86900873    -0.5978328     
-0.86900873    +0.44825574    +0.076192877   
-0.5978328     +0.076192877   -1.1640359     



 -------------------------------------------
 STEP OF MOLECULAR DYNAMICS : 17
 -------------------------------------------
 NEW-OLD atomic charge density approx. for the potential !
 searching radius is (Bohr))              = +14.89
 searching radius unit is (Bohr))         = +1.8897261
+289
 DONE : INIT SCF Time : +169.292 (SEC)


 LCAO ALGORITHM --------------- ION=+18   ELEC=+1  --------------------------------

 Density error is +0.0102568207387

 LCAO ALGORITHM --------------- ION=+18   ELEC=+2  --------------------------------

 Density error is +0.00587620323778

 LCAO ALGORITHM --------------- ION=+18   ELEC=+3  --------------------------------

 Density error is +0.00102720124737

 LCAO ALGORITHM --------------- ION=+18   ELEC=+4  --------------------------------

 Density error is +0.000305712336223

 LCAO ALGORITHM --------------- ION=+18   ELEC=+5  --------------------------------

 Density error is +6.82969068348e-05

 LCAO ALGORITHM --------------- ION=+18   ELEC=+6  --------------------------------

 Density error is +8.65667315745e-06

 LCAO ALGORITHM --------------- ION=+18   ELEC=+7  --------------------------------

 Density error is +8.80114308243e-07

 LCAO ALGORITHM --------------- ION=+18   ELEC=+8  --------------------------------

 Density error is +1.97337602096e-07

 LCAO ALGORITHM --------------- ION=+18   ELEC=+9  --------------------------------

 Density error is +4.57780688754e-08

 charge density convergence is achieved
 final etot is -219.739186467 eV

 ><><><><><><><><><><><><><><><><><><><><><><><><><><><><><><><><><><><

    TOTAL-FORCE (eV/Angstrom)

 ><><><><><><><><><><><><><><><><><><><><><><><><><><><><><><><><><><><

 atom    x              y              z              
 H1      +0.3271577          -0.37486462         +0.25950264         
 H2      +0.26483685         +0.24068022         +0.099635807        
 H3      -0.44495763         -0.35316146         -0.015051229        
 H4      +0.36380387         -0.66115079         +0.12706181         
 C1      -0.51084078         +1.1484967          -0.47114903         


 ><><><><><><><><><><><><><><><><><><><><><><><><><><><><><><><><><><><

 TOTAL-STRESS (KBAR)

 ><><><><><><><><><><><><><><><><><><><><><><><><><><><><><><><><><><><

 -0.213051              -1.271123              +0.042696              
 -1.271123              -0.007029              -0.294629              
 +0.042696              -0.294629              -0.215987              
 TOTAL-PRESSURE: -0.145355 KBAR


 ------------------------------------------------------------------------------------------------
 Energy              Potential           Kinetic             Temperature         Pressure (KBAR)     
 -8.0715855          -8.0752633          +0.0036777456       +193.55647          -0.03846178         
 ------------------------------------------------------------------------------------------------

output Pressure for check!
Virtual Pressure is -0.03846178 Kbar 
Virial Term is -0.14535543 Kbar 
Kenetic Term is +0.10689366 Kbar 


 ><><><><><><><><><><><><><><><><><><><><><><><><><><><><><><><><><><><

 MD STRESS (KBAR)

 ><><><><><><><><><><><><><><><><><><><><><><><><><><><><><><><><><><><

-0.1390153     -1.3003428     +0.014726915   
-1.3003428     +0.10831993    -0.38873049    
+0.014726915   -0.38873049    -0.084689964   



 -------------------------------------------
 STEP OF MOLECULAR DYNAMICS : 18
 -------------------------------------------
 NEW-OLD atomic charge density approx. for the potential !
 searching radius is (Bohr))              = +14.89
 searching radius unit is (Bohr))         = +1.8897261
+289
 DONE : INIT SCF Time : +179.339 (SEC)


 LCAO ALGORITHM --------------- ION=+19   ELEC=+1  --------------------------------

 Density error is +0.0091847022389

 LCAO ALGORITHM --------------- ION=+19   ELEC=+2  --------------------------------

 Density error is +0.00520099962037

 LCAO ALGORITHM --------------- ION=+19   ELEC=+3  --------------------------------

 Density error is +0.00112002730671

 LCAO ALGORITHM --------------- ION=+19   ELEC=+4  --------------------------------

 Density error is +0.000262868222509

 LCAO ALGORITHM --------------- ION=+19   ELEC=+5  --------------------------------

 Density error is +5.66432128795e-05

 LCAO ALGORITHM --------------- ION=+19   ELEC=+6  --------------------------------

 Density error is +7.3062060233e-06

 LCAO ALGORITHM --------------- ION=+19   ELEC=+7  --------------------------------

 Density error is +7.09877260357e-07

 LCAO ALGORITHM --------------- ION=+19   ELEC=+8  --------------------------------

 Density error is +1.89788945317e-07

 LCAO ALGORITHM --------------- ION=+19   ELEC=+9  --------------------------------

 Density error is +4.93973371939e-08

 charge density convergence is achieved
 final etot is -219.71613306 eV

 ><><><><><><><><><><><><><><><><><><><><><><><><><><><><><><><><><><><

    TOTAL-FORCE (eV/Angstrom)

 ><><><><><><><><><><><><><><><><><><><><><><><><><><><><><><><><><><><

 atom    x              y              z              
 H1      +0.30166066         -0.36729462         +0.25059851         
 H2      +0.39550626         +0.20408245         +0.074351354        
 H3      -0.43294442         -0.52395792         -0.011753754        
 H4      +0.77152397         -0.97648625         +0.82274762         
 C1      -1.0357465          +1.6636563          -1.1359437          


 ><><><><><><><><><><><><><><><><><><><><><><><><><><><><><><><><><><><

 TOTAL-STRESS (KBAR)

 ><><><><><><><><><><><><><><><><><><><><><><><><><><><><><><><><><><><

 -0.105366              -1.515788              +0.640728              
 -1.515788              -0.137357              -0.702149              
 +0.640728              -0.702149              +0.730151              
 TOTAL-PRESSURE: +0.162476 KBAR


 ------------------------------------------------------------------------------------------------
 Energy              Potential           Kinetic             Temperature         Pressure (KBAR)     
 -8.0714763          -8.0744161          +0.0029397918       +154.71862          +0.24792067         
 ------------------------------------------------------------------------------------------------

output Pressure for check!
Virtual Pressure is +0.24792067 Kbar 
Virial Term is +0.16247564 Kbar 
Kenetic Term is +0.085445032 Kbar 


 ><><><><><><><><><><><><><><><><><><><><><><><><><><><><><><><><><><><

 MD STRESS (KBAR)

 ><><><><><><><><><><><><><><><><><><><><><><><><><><><><><><><><><><><

+0.010871161   -1.5322104     +0.59746362    
-1.5322104     -0.091044074   -0.74571791    
+0.59746362    -0.74571791    +0.82393493    



 -------------------------------------------
 STEP OF MOLECULAR DYNAMICS : 19
 -------------------------------------------
 NEW-OLD atomic charge density approx. for the potential !
 searching radius is (Bohr))              = +14.89
 searching radius unit is (Bohr))         = +1.8897261
+289
 DONE : INIT SCF Time : +189.451 (SEC)


 LCAO ALGORITHM --------------- ION=+20   ELEC=+1  --------------------------------

 Density error is +0.00757697865613

 LCAO ALGORITHM --------------- ION=+20   ELEC=+2  --------------------------------

 Density error is +0.00427497617302

 LCAO ALGORITHM --------------- ION=+20   ELEC=+3  --------------------------------

 Density error is +0.000674829117538

 LCAO ALGORITHM --------------- ION=+20   ELEC=+4  --------------------------------

 Density error is +0.000132661525188

 LCAO ALGORITHM --------------- ION=+20   ELEC=+5  --------------------------------

 Density error is +2.8351052372e-05

 LCAO ALGORITHM --------------- ION=+20   ELEC=+6  --------------------------------

 Density error is +3.98753802293e-06

 LCAO ALGORITHM --------------- ION=+20   ELEC=+7  --------------------------------

 Density error is +2.93627118281e-07

 LCAO ALGORITHM --------------- ION=+20   ELEC=+8  --------------------------------

 Density error is +7.98462655779e-08

 charge density convergence is achieved
 final etot is -219.714197227 eV

 ><><><><><><><><><><><><><><><><><><><><><><><><><><><><><><><><><><><

    TOTAL-FORCE (eV/Angstrom)

 ><><><><><><><><><><><><><><><><><><><><><><><><><><><><><><><><><><><

 atom    x              y              z              
 H1      +0.25378886         -0.34257276         +0.22089564         
 H2      +0.40141367         +0.12791478         +0.055637789        
 H3      -0.34906111         -0.53382447         -0.0025389591       
 H4      +0.92441146         -1.0501409          +1.0896821          
 C1      -1.2305529          +1.7986233          -1.3636765          


 ><><><><><><><><><><><><><><><><><><><><><><><><><><><><><><><><><><><

 TOTAL-STRESS (KBAR)

 ><><><><><><><><><><><><><><><><><><><><><><><><><><><><><><><><><><><

 +0.054856              -1.435856              +0.902407              
 -1.435856              -0.120794              -0.821672              
 +0.902407              -0.821672              +1.105786              
 TOTAL-PRESSURE: +0.346616 KBAR


 ------------------------------------------------------------------------------------------------
 Energy              Potential           Kinetic             Temperature         Pressure (KBAR)     
 -8.0714135          -8.0743449          +0.0029314474       +154.27946          +0.43181837         
 ------------------------------------------------------------------------------------------------

output Pressure for check!
Virtual Pressure is +0.43181837 Kbar 
Virial Term is +0.34661587 Kbar 
Kenetic Term is +0.085202501 Kbar 


 ><><><><><><><><><><><><><><><><><><><><><><><><><><><><><><><><><><><

 MD STRESS (KBAR)

 ><><><><><><><><><><><><><><><><><><><><><><><><><><><><><><><><><><><

+0.24972286    -1.4553505     +0.86551266    
-1.4553505     -0.10484073    -0.82962593    
+0.86551266    -0.82962593    +1.150573      



 -------------------------------------------
 STEP OF MOLECULAR DYNAMICS : 20
 -------------------------------------------
 NEW-OLD atomic charge density approx. for the potential !
 searching radius is (Bohr))              = +14.89
 searching radius unit is (Bohr))         = +1.8897261
+289
 DONE : INIT SCF Time : +198.641 (SEC)


 LCAO ALGORITHM --------------- ION=+21   ELEC=+1  --------------------------------

 Density error is +0.00836947057682

 LCAO ALGORITHM --------------- ION=+21   ELEC=+2  --------------------------------

 Density error is +0.00483558746169

 LCAO ALGORITHM --------------- ION=+21   ELEC=+3  --------------------------------

 Density error is +0.000437605641106

 LCAO ALGORITHM --------------- ION=+21   ELEC=+4  --------------------------------

[...]

 LCAO ALGORITHM --------------- ION=+198  ELEC=+7  --------------------------------

 Density error is +8.63059869674e-07

 LCAO ALGORITHM --------------- ION=+198  ELEC=+8  --------------------------------

 Density error is +2.15883425704e-07

 LCAO ALGORITHM --------------- ION=+198  ELEC=+9  --------------------------------

 Density error is +3.8787806309e-08

 charge density convergence is achieved
 final etot is -219.773486943 eV

 ><><><><><><><><><><><><><><><><><><><><><><><><><><><><><><><><><><><

    TOTAL-FORCE (eV/Angstrom)

 ><><><><><><><><><><><><><><><><><><><><><><><><><><><><><><><><><><><

 atom    x              y              z              
 H1      +0.16600932         -0.2464913          -0.37674016         
 H2      -0.20081772         +0.13833904         -0.26236933         
 H3      -0.16827738         -0.058335704        -0.01488524         
 H4      -0.021869606        +0.45350482         +0.10126396         
 C1      +0.22495538         -0.28701686         +0.55273077         


 ><><><><><><><><><><><><><><><><><><><><><><><><><><><><><><><><><><><

 TOTAL-STRESS (KBAR)

 ><><><><><><><><><><><><><><><><><><><><><><><><><><><><><><><><><><><

 -0.424964              -0.420057              -0.035582              
 -0.420057              +0.843826              +0.357914              
 -0.035582              +0.357914              +0.641244              
 TOTAL-PRESSURE: +0.353369 KBAR


 ------------------------------------------------------------------------------------------------
 Energy              Potential           Kinetic             Temperature         Pressure (KBAR)     
 -8.071849           -8.0765238          +0.0046748057       +246.03085          +0.48924194         
 ------------------------------------------------------------------------------------------------

output Pressure for check!
Virtual Pressure is +0.48924194 Kbar 
Virial Term is +0.35336873 Kbar 
Kenetic Term is +0.1358732 Kbar 


 ><><><><><><><><><><><><><><><><><><><><><><><><><><><><><><><><><><><

 MD STRESS (KBAR)

 ><><><><><><><><><><><><><><><><><><><><><><><><><><><><><><><><><><><

-0.29699134    -0.43631747    -0.055181161   
-0.43631747    +1.0964384     +0.34278509    
-0.055181161   +0.34278509    +0.66827874    



 -------------------------------------------
 STEP OF MOLECULAR DYNAMICS : 198
 -------------------------------------------
 NEW-OLD atomic charge density approx. for the potential !
 searching radius is (Bohr))              = +14.89
 searching radius unit is (Bohr))         = +1.8897261
+289
 DONE : INIT SCF Time : +2005 (SEC)


 LCAO ALGORITHM --------------- ION=+199  ELEC=+1  --------------------------------

 Density error is +0.0116965799486

 LCAO ALGORITHM --------------- ION=+199  ELEC=+2  --------------------------------

 Density error is +0.00599756996295

 LCAO ALGORITHM --------------- ION=+199  ELEC=+3  --------------------------------

 Density error is +0.00161892667717

 LCAO ALGORITHM --------------- ION=+199  ELEC=+4  --------------------------------

 Density error is +0.000336109378087

 LCAO ALGORITHM --------------- ION=+199  ELEC=+5  --------------------------------

 Density error is +7.28682142925e-05

 LCAO ALGORITHM --------------- ION=+199  ELEC=+6  --------------------------------

 Density error is +9.20476374939e-06

 LCAO ALGORITHM --------------- ION=+199  ELEC=+7  --------------------------------

 Density error is +9.31360653017e-07

 LCAO ALGORITHM --------------- ION=+199  ELEC=+8  --------------------------------

 Density error is +2.85909725776e-07

 LCAO ALGORITHM --------------- ION=+199  ELEC=+9  --------------------------------

 Density error is +6.15427568167e-08

 charge density convergence is achieved
 final etot is -219.742270838 eV

 ><><><><><><><><><><><><><><><><><><><><><><><><><><><><><><><><><><><

    TOTAL-FORCE (eV/Angstrom)

 ><><><><><><><><><><><><><><><><><><><><><><><><><><><><><><><><><><><

 atom    x              y              z              
 H1      +0.35578516         +0.02994453         -0.37893532         
 H2      -0.33587057         -0.075073219        -0.098767925        
 H3      -0.64668547         +0.047358043        -0.29163087         
 H4      -0.4020961          +0.75909731         +0.48065762         
 C1      +1.028867           -0.76132666         +0.28867649         


 ><><><><><><><><><><><><><><><><><><><><><><><><><><><><><><><><><><><

 TOTAL-STRESS (KBAR)

 ><><><><><><><><><><><><><><><><><><><><><><><><><><><><><><><><><><><

 -0.838020              -0.944996              -0.825086              
 -0.944996              +0.335387              +0.870428              
 -0.825086              +0.870428              +0.521080              
 TOTAL-PRESSURE: +0.006149 KBAR


 ------------------------------------------------------------------------------------------------
 Energy              Potential           Kinetic             Temperature         Pressure (KBAR)     
 -8.0717985          -8.0753766          +0.0035780659       +188.31041          +0.11014523         
 ------------------------------------------------------------------------------------------------

output Pressure for check!
Virtual Pressure is +0.11014523 Kbar 
Virial Term is +0.0061487605 Kbar 
Kenetic Term is +0.10399647 Kbar 


 ><><><><><><><><><><><><><><><><><><><><><><><><><><><><><><><><><><><

 MD STRESS (KBAR)

 ><><><><><><><><><><><><><><><><><><><><><><><><><><><><><><><><><><><

-0.74091714    -0.96220081    -0.84084332    
-0.96220081    +0.53450265    +0.84259302    
-0.84084332    +0.84259302    +0.53685018    



 -------------------------------------------
 STEP OF MOLECULAR DYNAMICS : 199
 -------------------------------------------
 NEW-OLD atomic charge density approx. for the potential !
 searching radius is (Bohr))              = +14.89
 searching radius unit is (Bohr))         = +1.8897261
+289
 DONE : INIT SCF Time : +2015.86 (SEC)


 LCAO ALGORITHM --------------- ION=+200  ELEC=+1  --------------------------------

 Density error is +0.0096905506961

 LCAO ALGORITHM --------------- ION=+200  ELEC=+2  --------------------------------

 Density error is +0.00475689084999

 LCAO ALGORITHM --------------- ION=+200  ELEC=+3  --------------------------------

 Density error is +0.00167246480876

 LCAO ALGORITHM --------------- ION=+200  ELEC=+4  --------------------------------

 Density error is +0.000219108420656

 LCAO ALGORITHM --------------- ION=+200  ELEC=+5  --------------------------------

 Density error is +4.76704669106e-05

 LCAO ALGORITHM --------------- ION=+200  ELEC=+6  --------------------------------

 Density error is +6.54973665511e-06

 LCAO ALGORITHM --------------- ION=+200  ELEC=+7  --------------------------------

 Density error is +7.21307117814e-07

 LCAO ALGORITHM --------------- ION=+200  ELEC=+8  --------------------------------

 Density error is +2.08971767588e-07

 LCAO ALGORITHM --------------- ION=+200  ELEC=+9  --------------------------------

 Density error is +4.54012156802e-08

 charge density convergence is achieved
 final etot is -219.708642845 eV

 ><><><><><><><><><><><><><><><><><><><><><><><><><><><><><><><><><><><

    TOTAL-FORCE (eV/Angstrom)

 ><><><><><><><><><><><><><><><><><><><><><><><><><><><><><><><><><><><

 atom    x              y              z              
 H1      +0.49752371         +0.29436514         -0.364571           
 H2      -0.43719974         -0.27224273         +0.060344715        
 H3      -0.92824047         +0.11206853         -0.43040599         
 H4      -0.57563793         +0.89806715         +0.67911549         
 C1      +1.4435544          -1.0322581          +0.055516783        


 ><><><><><><><><><><><><><><><><><><><><><><><><><><><><><><><><><><><

 TOTAL-STRESS (KBAR)

 ><><><><><><><><><><><><><><><><><><><><><><><><><><><><><><><><><><><

 -1.193116              -1.293078              -1.218868              
 -1.293078              -0.261910              +1.175829              
 -1.218868              +1.175829              +0.368281              
 TOTAL-PRESSURE: -0.362249 KBAR


 ------------------------------------------------------------------------------------------------
 Energy              Potential           Kinetic             Temperature         Pressure (KBAR)     
 -8.071733           -8.0741408          +0.0024078093       +126.72085          -0.29226571         
 ------------------------------------------------------------------------------------------------

output Pressure for check!
Virtual Pressure is -0.29226571 Kbar 
Virial Term is -0.36224868 Kbar 
Kenetic Term is +0.069982964 Kbar 


 ><><><><><><><><><><><><><><><><><><><><><><><><><><><><><><><><><><><

 MD STRESS (KBAR)

 ><><><><><><><><><><><><><><><><><><><><><><><><><><><><><><><><><><><

-1.1278186     -1.3100461     -1.2362256     
-1.3100461     -0.13899104    +1.1373492     
-1.2362256     +1.1373492     +0.39001249    



 -------------------------------------------
 STEP OF MOLECULAR DYNAMICS : 200
 -------------------------------------------
 NEW-OLD atomic charge density approx. for the potential !
 searching radius is (Bohr))              = +14.89
 searching radius unit is (Bohr))         = +1.8897261
+289
 DONE : INIT SCF Time : +2026.84 (SEC)


 LCAO ALGORITHM --------------- ION=+201  ELEC=+1  --------------------------------

 Density error is +0.00781344049165

 LCAO ALGORITHM --------------- ION=+201  ELEC=+2  --------------------------------

 Density error is +0.00383846678523

 LCAO ALGORITHM --------------- ION=+201  ELEC=+3  --------------------------------

 Density error is +0.00141563965581

 LCAO ALGORITHM --------------- ION=+201  ELEC=+4  --------------------------------

 Density error is +0.000109825468412

 LCAO ALGORITHM --------------- ION=+201  ELEC=+5  --------------------------------

 Density error is +2.26763811952e-05

 LCAO ALGORITHM --------------- ION=+201  ELEC=+6  --------------------------------

 Density error is +3.40851047625e-06

 LCAO ALGORITHM --------------- ION=+201  ELEC=+7  --------------------------------

 Density error is +3.2178398997e-07

 LCAO ALGORITHM --------------- ION=+201  ELEC=+8  --------------------------------

 Density error is +1.05682586105e-07

 LCAO ALGORITHM --------------- ION=+201  ELEC=+9  --------------------------------

 Density error is +1.21181922475e-08

 charge density convergence is achieved
 final etot is -219.701713242 eV

 ><><><><><><><><><><><><><><><><><><><><><><><><><><><><><><><><><><><

    TOTAL-FORCE (eV/Angstrom)

 ><><><><><><><><><><><><><><><><><><><><><><><><><><><><><><><><><><><

 atom    x              y              z              
 H1      +0.55742589         +0.47699178         -0.34967753         
 H2      -0.48382823         -0.40170386         +0.16050736         
 H3      -0.96943314         +0.13193222         -0.41640774         
 H4      -0.42637566         +0.8304402          +0.59626464         
 C1      +1.3222111          -1.0376603          +0.0093132709       


 ><><><><><><><><><><><><><><><><><><><><><><><><><><><><><><><><><><><

 TOTAL-STRESS (KBAR)

 ><><><><><><><><><><><><><><><><><><><><><><><><><><><><><><><><><><><

 -1.497804              -1.354897              -1.073892              
 -1.354897              -0.769424              +1.202704              
 -1.073892              +1.202704              +0.178239              
 TOTAL-PRESSURE: -0.696330 KBAR


 ------------------------------------------------------------------------------------------------
 Energy              Potential           Kinetic             Temperature         Pressure (KBAR)     
 -8.071737           -8.0738861          +0.0021491744       +113.10913          -0.63386389         
 ------------------------------------------------------------------------------------------------

output Pressure for check!
Virtual Pressure is -0.63386389 Kbar 
Virial Term is -0.69632963 Kbar 
Kenetic Term is +0.062465741 Kbar 


 ><><><><><><><><><><><><><><><><><><><><><><><><><><><><><><><><><><><

 MD STRESS (KBAR)

 ><><><><><><><><><><><><><><><><><><><><><><><><><><><><><><><><><><><

-1.4194518     -1.3818011     -1.0982787     
-1.3818011     -0.71093473    +1.1664564     
-1.0982787     +1.1664564     +0.22879491    




 --------------------------------------------
 !FINAL_ETOT_IS -219.7017132419798 eV
 --------------------------------------------






  |CLASS_NAME---------|NAME---------------|TIME(Sec)-----|CALLS----|AVG------|PER%-------
                       total               +2037.2        407       +5        +1e+02    %
   Driver              driver_line         +2037.2        1         +2e+03    +1e+02    %
   PW_Basis            setup_struc_factor  +7.9202        201       +0.039    +0.39     %
   ORB_control         read_orb_first      +0.13976       1         +0.14     +0.0069   %
   LCAO_Orbitals       Read_Orbitals       +0.13975       1         +0.14     +0.0069   %
   ORB_control         set_orb_tables      +1.3137        1         +1.3      +0.064    %
   ORB_gen_tables      gen_tables          +1.3137        1         +1.3      +0.064    %
   ORB_table_phi       init_Table          +0.75357       1         +0.75     +0.037    %
   ORB_table_phi       cal_ST_Phi12_R      +0.74738       126       +0.0059   +0.037    %
   ORB_table_beta      init_Table_Beta     +0.2607        1         +0.26     +0.013    %
   ORB_table_beta      VNL_PhiBeta_R       +0.25843       56        +0.0046   +0.013    %
   Run_MD              md_line             +2035.4        1         +2e+03    +1e+02    %
   Nose_Hoover         setup               +14.413        1         +14       +0.71     %
   MD_func             force_stress        +2033.3        201       +10       +1e+02    %
   ESolver_KS_LCAO     Run                 +1753.2        201       +8.7      +86       %
   ESolver_KS_LCAO     beforescf           +125.69        201       +0.63     +6.2      %
   ESolver_KS_LCAO     beforesolver        +13.828        201       +0.069    +0.68     %
   ESolver_KS_LCAO     set_matrix_grid     +13.824        201       +0.069    +0.68     %
   Grid_Technique      init                +13.782        201       +0.069    +0.68     %
   Grid_BigCell        grid_expansion_index+9.2207        402       +0.023    +0.45     %
   Charge              set_rho_core        +0.18112       201       +0.0009   +0.0089   %
   Charge              atomic_rho          +28.798        401       +0.072    +1.4      %
   PW_Basis            recip2real          +202           11120     +0.018    +9.9      %
   PW_Basis            gathers_scatterp    +83.465        11120     +0.0075   +4.1      %
   Potential           init_pot            +71.477        201       +0.36     +3.5      %
   Potential           update_from_charge  +644.42        1983      +0.32     +32       %
   Potential           cal_fixed_v         +4.2256        201       +0.021    +0.21     %
   PotLocal            cal_fixed_v         +4.041         201       +0.02     +0.2      %
   Potential           cal_v_eff           +640.19        1983      +0.32     +31       %
   H_Hartree_pw        v_hartree           +91.459        1983      +0.046    +4.5      %
   PW_Basis            real2recip          +333.83        16668     +0.02     +16       %
   PW_Basis            gatherp_scatters    +167.99        16668     +0.01     +8.2      %
   PotXC               cal_v_eff           +543.77        1983      +0.27     +27       %
   XC_Functional       v_xc                +541.56        1983      +0.27     +27       %
   H_Ewald_pw          compute_ewald       +2.2371        201       +0.011    +0.11     %
   HSolverLCAO         solve               +892           1782      +0.5      +44       %
   HamiltLCAO          updateHk            +436.78        1782      +0.25     +21       %
   OperatorLCAO        init                +436.62        3564      +0.12     +21       %
   Veff                contributeHk        +436.61        1782      +0.25     +21       %
   Gint_interface      cal_gint            +261.03        3765      +0.069    +13       %
   Gint_interface      cal_gint_vlocal     +98.111        1782      +0.055    +4.8      %
   Gint_k              folding_vl_k        +338.49        1782      +0.19     +17       %
   Gint_k              Distri              +338.45        1782      +0.19     +17       %
   LCAO_gen_fixedH     build_Nonlocal_mu_new+0.2079        402       +0.00052  +0.01     %
   HSolverLCAO         hamiltSolvePsiK     +3.9045        1782      +0.0022   +0.19     %
   DiagoElpa           elpa_solve          +3.1838        1782      +0.0018   +0.16     %
   ElecStateLCAO       psiToRho            +451.3         1782      +0.25     +22       %
   elecstate           cal_dm              +0.2377        1983      +0.00012  +0.012    %
   psiMulPsiMpi        pdgemm              +0.21433       1983      +0.00011  +0.011    %
   Gint_interface      cal_gint_rho        +116.69        1782      +0.065    +5.7      %
   Charge_Mixing       rhog_dot_product    +1.1983        1782      +0.00067  +0.059    %
   Charge              mix_rho             +81.523        1581      +0.052    +4        %
   Inverse             using_zheev         +1.0362        1380      +0.00075  +0.051    %
   Force_Stress_LCAO   getForceStress      +280.13        201       +1.4      +14       %
   Forces              cal_force_loc       +9.9826        201       +0.05     +0.49     %
   Forces              cal_force_ew        +6.1386        201       +0.031    +0.3      %
   Forces              cal_force_scc       +18.117        201       +0.09     +0.89     %
   Stress_Func         stress_loc          +18.956        201       +0.094    +0.93     %
   Stress_Func         stress_har          +5.5885        201       +0.028    +0.27     %
   Stress_Func         stress_ewa          +7.8424        201       +0.039    +0.38     %
   Stress_Func         stress_gga          +29.082        201       +0.14     +1.4      %
   Force_LCAO_k        ftable_k            +184.39        201       +0.92     +9.1      %
   Force_LCAO_k        allocate_k          +0.30442       201       +0.0015   +0.015    %
   Force_LCAO_k        cal_fvl_dphi_k      +46.231        201       +0.23     +2.3      %
   Gint_interface      cal_gint_force      +46.23         201       +0.23     +2.3      %
   Force_LCAO_k        cal_fvnl_dbeta_k_new+0.34373       201       +0.0017   +0.017    %
 ----------------------------------------------------------------------------------------

 CLASS_NAME---------|NAME---------------|MEMORY(MB)--------
                                         +4624
 ORB_table_phi       Jl(x)               +138.2         
 Charge_Mixing       Rrho                +32            
 Charge_Mixing       dRrho               +28            
 Charge_Mixing       drho                +28            
 PW_Basis            struc_fac           +6.957         
 Grid_Meshcell       index2normal        +4.673         
 Grid_Meshcell       index2ucell         +4.673         
 Charge              rho                 +4             
 Charge              rho_save            +4             
 Charge              rho_core            +4             
 Potential           v_effective_fixed   +4             
 Potential           vr_eff              +4             
 Charge_Mixing       rho_save2           +4             
 ORB_table_phi       Table_SR&TR         +2.758         
 Charge              rhog                +1.739         
 Charge              rhog_save           +1.739         
 Charge              kin_r               +1.739         
 Charge              kin_r_save          +1.739         
 Charge              rhog_core           +1.739         
 ----------------------------------------------------------

 Start  Time  : Wed Feb  8 16:48:00 2023
 Finish Time  : Wed Feb  8 17:21:57 2023
 Total  Time  : 0 h 33 mins 57 secs 
