       5
 i =        0, time =        0.000, E =        -8.0761571639
  H         5.3815433860        4.0686080070        3.6057301420
  H         3.9453965570        4.8032056890        4.3846884000
  H         5.5209242830        5.6545028530        4.4270873780
  H         5.2818530470        4.1641475520        5.3918265680
  C         5.0325059260        4.6725515990        4.4523234120
       5
 i =        1, time =        1.000, E =        -8.0749672127
  H         5.4034544905        4.0444142358        3.6119468450
  H         3.9445838094        4.8142824877        4.3758101573
  H         5.5030950601        5.6476691910        4.4041839823
  H         5.3053187244        4.1411077332        5.4112902260
  C         5.0310525138        4.6737124421        4.4527503428
       5
 i =        2, time =        2.000, E =        -8.0727689500
  H         5.4316866938        4.0215487622        3.6192119584
  H         3.9472585777        4.8101899713        4.3851785714
  H         5.4810251442        5.6613411296        4.3740654016
  H         5.3186864208        4.1286717856        5.4261933556
  C         5.0298003702        4.6745928789        4.4507304663
       5
 i =        3, time =        3.000, E =        -8.0704802088
  H         5.4565245293        4.0039268860        3.6442637516
  H         3.9601646434        4.8109832313        4.3884482161
  H         5.4634987296        5.6940753103        4.3527319387
  H         5.3380052995        4.1124333722        5.4206639805
  C         5.0277516089        4.6724473963        4.4493631813
       5
 i =        4, time =        4.000, E =        -8.0680676174
  H         5.4893043673        3.9974933684        3.6630701539
  H         3.9656697761        4.8137772642        4.3757235420
  H         5.4389650944        5.7158551798        4.3510549777
  H         5.3505527529        4.1022960563        5.4086329615
  C         5.0233777578        4.6693351619        4.4511409240
       5
 i =        5, time =        5.000, E =        -8.0682250268
  H         5.5041971334        3.9979648563        3.6907478953
  H         3.9651533685        4.8035034112        4.3526253543
  H         5.4211053373        5.7180574518        4.3515659004
  H         5.3570760674        4.1028191344        5.3980654052
  C         5.0239980726        4.6647638075        4.4541073866
       5
 i =        6, time =        6.000, E =        -8.0687592895
  H         5.5030936436        4.0004256294        3.7184161203
  H         3.9630828205        4.8064424914        4.3278383964
  H         5.4039957186        5.7034683940        4.3445691705
  H         5.3646384668        4.1126319043        5.3828478798
  C         5.0254065515        4.6579483114        4.4596905983
       5
 i =        7, time =        7.000, E =        -8.0695149065
  H         5.5071530513        4.0284050042        3.7309414782
  H         3.9710042419        4.7882154826        4.3117901513
  H         5.3900962923        5.6717314812        4.3491619216
  H         5.3682172579        4.1336134313        5.3767544570
  C         5.0300757726        4.6548451285        4.4625862448
       5
 i =        8, time =        8.000, E =        -8.0686079300
  H         5.5101967432        4.0576254322        3.7544082630
  H         3.9715048712        4.7442589168        4.3063046463
  H         5.3905014857        5.6493878990        4.3609608543
  H         5.3588649827        4.1539775580        5.3680241094
  C         5.0335241749        4.6520897585        4.4642932298
       5
 i =        9, time =        9.000, E =        -8.0679055998
  H         5.5188528786        4.0711078700        3.7483081716
  H         3.9717915412        4.7156701214        4.3183402962
  H         5.3785941983        5.6344081731        4.3697248515
  H         5.3502761898        4.1600174757        5.3588864329
  C         5.0390583098        4.6527760729        4.4665605592
       5
 i =       10, time =       10.000, E =        -8.0702687353
  H         5.5342726976        4.0827750437        3.7299523433
  H         3.9581173971        4.6870773494        4.3262130920
  H         5.3685121976        5.6417042527        4.3934897435
  H         5.3570675762        4.1775987705        5.3672352344
  C         5.0400306917        4.6530133139        4.4673376820
       5
 i =       11, time =       11.000, E =        -8.0729295755
  H         5.5571655561        4.0962551992        3.6914585014
  H         3.9320885567        4.6756278260        4.3338410875
  H         5.3719769101        5.6547147118        4.4034437556
  H         5.3715876167        4.2085481131        5.3887824130
  C         5.0391314867        4.6537968867        4.4703696436
       5
 i =       12, time =       12.000, E =        -8.0734801358
  H         5.5794033995        4.1218159073        3.6444892436
  H         3.9069266678        4.6527767522        4.3401901599
  H         5.3924046897        5.6863487754        4.4247919239
  H         5.3706541745        4.2293188945        5.4058248587
  C         5.0387832061        4.6505833515        4.4690330793
       5
 i =       13, time =       13.000, E =        -8.0709433013
  H         5.5904386297        4.1541085990        3.6022153588
  H         3.8915027215        4.6363002628        4.3352667027
  H         5.4134295590        5.7205236381        4.4425915816
  H         5.3774905089        4.2471418582        5.4287836000
  C         5.0414984491        4.6488284392        4.4650096458
       5
 i =       14, time =       14.000, E =        -8.0670344163
  H         5.5973148112        4.1864150729        3.5778110398
  H         3.8863219602        4.6189256810        4.3365103654
  H         5.4290749504        5.7557381022        4.4614998910
  H         5.3666900855        4.2594161484        5.4594405758
  C         5.0412358030        4.6456517735        4.4608111266
       5
 i =       15, time =       15.000, E =        -8.0634018704
  H         5.5762488660        4.2150887675        3.5689824851
  H         3.8935441631        4.6060408083        4.3418641398
  H         5.4470544977        5.7887169895        4.4810062446
  H         5.3513300240        4.2686672731        5.4877208728
  C         5.0411192921        4.6454965032        4.4586966764
       5
 i =       16, time =       16.000, E =        -8.0642231666
  H         5.5490763750        4.2305618778        3.5593752798
  H         3.9153039422        4.5843292264        4.3456502596
  H         5.4601378176        5.7756125571        4.4974373179
  H         5.3336200265        4.2764243299        5.4946711516
  C         5.0367589194        4.6457418846        4.4603714817
       5
 i =       17, time =       17.000, E =        -8.0662268896
  H         5.5222793629        4.2447225426        3.5664908965
  H         3.9312186311        4.5663319380        4.3465943847
  H         5.4522414470        5.7593691468        4.5091332669
  H         5.3236311060        4.2891355545        5.4867290007
  C         5.0330063251        4.6485538953        4.4607494915
       5
 i =       18, time =       18.000, E =        -8.0696609742
  H         5.5163838658        4.2461885219        3.5674672950
  H         3.9366437588        4.5564262450        4.3470667699
  H         5.4277485239        5.7329321298        4.5187031251
  H         5.3131974059        4.2898696999        5.4659112822
  C         5.0294892789        4.6579780791        4.4597488462
       5
 i =       19, time =       19.000, E =        -8.0713045303
  H         5.5050506040        4.2417701373        3.5732540359
  H         3.9437469404        4.5563960581        4.3553881104
  H         5.3934493704        5.6957215562        4.5212939841
  H         5.2917409861        4.3012693917        5.4426765612
  C         5.0273712231        4.6709092356        4.4574829040
       5
 i =       20, time =       20.000, E =        -8.0692650982
  H         5.5075169857        4.2366270464        3.5910952775
  H         3.9565798782        4.5536782640        4.3563844732
  H         5.3620881131        5.6716737762        4.5277288477
  H         5.2729300214        4.2982447044        5.4028418152
  C         5.0271588594        4.6817000185        4.4575558875
       5
 i =       21, time =       21.000, E =        -8.0670508534
  H         5.5108918314        4.2201126672        3.6001606742
  H         3.9755827721        4.5537710587        4.3518934433
  H         5.3224933165        5.6657224842        4.5277500030
  H         5.2793519334        4.2924154145        5.3794656334
  C         5.0230904175        4.6922618535        4.4536813969
       5
 i =       22, time =       22.000, E =        -8.0685866938
  H         5.4953656124        4.2007881935        3.6098376392
  H         3.9895149076        4.5616367141        4.3370566203
  H         5.2823949576        5.6885446065        4.5241111010
  H         5.2919682014        4.2826262232        5.3799780219
  C         5.0196101214        4.6984216397        4.4491084976
       5
 i =       23, time =       23.000, E =        -8.0723450419
  H         5.4960905682        4.1950166940        3.6158473176
  H         3.9732985036        4.5588943503        4.3155094167
  H         5.2606573095        5.7333372332        4.5108406423
  H         5.2913516457        4.2736312938        5.3692620886
  C         5.0135921164        4.7004266494        4.4491173135
       5
 i =       24, time =       24.000, E =        -8.0749003349
  H         5.4983321310        4.1906677841        3.6186026492
  H         3.9507943947        4.5479401138        4.2958660827
  H         5.2310115918        5.7924498213        4.4956028460
  H         5.3096394578        4.2473485300        5.3748686615
  C         5.0094303148        4.7058602480        4.4462224121
       5
 i =       25, time =       25.000, E =        -8.0736077954
  H         5.5112945048        4.1920336298        3.6128839245
  H         3.9309323757        4.5363089093        4.2938631248
  H         5.1980965381        5.8408097024        4.4916042913
  H         5.3315877505        4.2164473673        5.3769809758
  C         5.0099428024        4.7110737273        4.4446535796
       5
 i =       26, time =       26.000, E =        -8.0725248325
  H         5.5298517021        4.2134547515        3.6317522500
  H         3.9221157399        4.5369975545        4.2855296361
  H         5.1748545277        5.8547135526        4.4874475027
  H         5.3441056984        4.1924325444        5.3682887351
  C         5.0108884559        4.7146999003        4.4396305825
       5
 i =       27, time =       27.000, E =        -8.0705904405
  H         5.5426607247        4.2351187614        3.6579396888
  H         3.9133232549        4.5403874539        4.2754813317
  H         5.1447171025        5.8575870041        4.4846220786
  H         5.3361173821        4.1712007083        5.3713256238
  C         5.0132389228        4.7201471820        4.4335338767
       5
 i =       28, time =       28.000, E =        -8.0696522531
  H         5.5617316432        4.2588714636        3.6554308344
  H         3.9027182701        4.5357542933        4.2475621750
  H         5.1059077546        5.8617601357        4.4862051196
  H         5.3327971561        4.1631101237        5.3760196345
  C         5.0084966078        4.7227427111        4.4308084861
       5
 i =       29, time =       29.000, E =        -8.0710918163
  H         5.5906126675        4.2767801442        3.6366698952
  H         3.8977209725        4.5269102846        4.2271857956
  H         5.0770819793        5.8491513366        4.4899695262
  H         5.3285829205        4.1768134223        5.3827832476
  C         5.0060534850        4.7241331283        4.4301608197
       5
 i =       30, time =       30.000, E =        -8.0718781930
  H         5.6179244775        4.2821419925        3.6124604938
  H         3.8958637284        4.5102029182        4.2298753175
  H         5.0463213898        5.8312275505        4.5011497502
  H         5.3148633335        4.1958350221        5.3862429665
  C         5.0039327177        4.7306304815        4.4324718076
       5
 i =       31, time =       31.000, E =        -8.0716173385
  H         5.6532849684        4.2973679098        3.5908825384
  H         3.9137351499        4.4925912746        4.2355536496
  H         5.0253800308        5.8124023574        4.4959498027
  H         5.2944241645        4.2015929150        5.3721928250
  C         5.0011678875        4.7346832508        4.4385678234
       5
 i =       32, time =       32.000, E =        -8.0706792487
  H         5.6506552555        4.3068767719        3.5864522988
  H         3.9553672467        4.4824726603        4.2573836002
  H         5.0035994729        5.7821960099        4.4870320449
  H         5.2724352451        4.2206702559        5.3559888490
  C         4.9982561757        4.7325572444        4.4449131268
       5
 i =       33, time =       33.000, E =        -8.0714578350
  H         5.6286353202        4.3329994746        3.5969437064
  H         3.9894863394        4.4530747014        4.2753536785
  H         4.9969224252        5.7797358639        4.4913550535
  H         5.2653357197        4.2463762272        5.3640014845
  C         4.9978381215        4.7310957327        4.4444385612
       5
 i =       34, time =       34.000, E =        -8.0723761455
  H         5.6046194236        4.3733152808        3.6269531853
  H         4.0004617447        4.4272241544        4.2826475550
  H         4.9905477310        5.7841082616        4.4908756107
  H         5.2661035618        4.2547819316        5.3864645517
  C         4.9952502490        4.7281435669        4.4414908632
       5
 i =       35, time =       35.000, E =        -8.0704537728
  H         5.5876501637        4.4036569391        3.6564400902
  H         4.0029904782        4.4049256126        4.2875271850
  H         4.9811364984        5.7906638669        4.4988908225
  H         5.2707510430        4.2705717125        5.4145049703
  C         4.9903223634        4.7273433221        4.4374634220
       5
 i =       36, time =       36.000, E =        -8.0700621793
  H         5.5924925152        4.4320995118        3.6728148330
  H         3.9804275350        4.3827617659        4.2750615971
  H         4.9757792893        5.7984599647        4.5163610418
  H         5.2778162376        4.2783978349        5.4289776978
  C         4.9865746053        4.7234616800        4.4348562618
       5
 i =       37, time =       37.000, E =        -8.0729412419
  H         5.6130990015        4.4417294394        3.6704106100
  H         3.9637972566        4.3609042872        4.2564588098
  H         4.9565835185        5.8160060539        4.5292290215
  H         5.2873945764        4.2976232537        5.4259055729
  C         4.9821518497        4.7256017768        4.4384099854
       5
 i =       38, time =       38.000, E =        -8.0748950217
  H         5.6442314844        4.4546720520        3.6570734828
  H         3.9600552190        4.3398421495        4.2372293844
  H         4.9474354475        5.8316075077        4.5321402419
  H         5.2947913444        4.3133963745        5.4301041029
  C         4.9751885578        4.7258082712        4.4406582802
       5
 i =       39, time =       39.000, E =        -8.0753919298
  H         5.6757516082        4.4640257543        3.6340543632
  H         3.9649910021        4.3237789081        4.2239044242
  H         4.9348929623        5.8440760231        4.5316080897
  H         5.3137128300        4.3307687410        5.4213600008
  C         4.9715536058        4.7266668463        4.4425870562
       5
 i =       40, time =       40.000, E =        -8.0737156411
  H         5.7065606120        4.4590996677        3.6063203762
  H         3.9641330954        4.3126837470        4.2168658833
  H         4.9243431765        5.8537741591        4.5352331297
  H         5.3383155067        4.3452601546        5.4056564882
  C         4.9720423296        4.7299529868        4.4468248759
       5
 i =       41, time =       41.000, E =        -8.0714752592
  H         5.7277500088        4.4572594520        3.5784781512
  H         3.9766340760        4.3051857358        4.2069782976
  H         4.9203802549        5.8524598572        4.5169711982
  H         5.3639448810        4.3520942388        5.3993802029
  C         4.9707998501        4.7293696386        4.4474873690
       5
 i =       42, time =       42.000, E =        -8.0695496281
  H         5.7377435386        4.4547073311        3.5703235235
  H         3.9845728697        4.3025915483        4.1936056200
  H         4.9146631958        5.8601715588        4.5013985713
  H         5.3891435978        4.3599105434        5.4000615694
  C         4.9685872094        4.7289111841        4.4515609271
       5
 i =       43, time =       43.000, E =        -8.0669166062
  H         5.7534459711        4.4610614374        3.5556751160
  H         3.9750030343        4.3056090323        4.1907482551
  H         4.9138421618        5.8608306926        4.4846995643
  H         5.3946047217        4.3659039495        5.3800813423
  C         4.9679501570        4.7261000565        4.4549844934
       5
 i =       44, time =       44.000, E =        -8.0670134436
  H         5.7454291002        4.4590933834        3.5624821619
  H         3.9762008556        4.3074532850        4.1993076597
  H         4.9095365739        5.8478902038        4.4763221710
  H         5.4121974323        4.3704520954        5.3631914769
  C         4.9673396412        4.7199125589        4.4620011066
       5
 i =       45, time =       45.000, E =        -8.0693136076
  H         5.7274654530        4.4730903848        3.5766516062
  H         3.9807168378        4.3123592624        4.2025103109
  H         4.9092184459        5.8179119235        4.4731211500
  H         5.4244021707        4.3721001588        5.3553384996
  C         4.9695928326        4.7195961926        4.4652817954
       5
 i =       46, time =       46.000, E =        -8.0721010355
  H         5.6850154130        4.4928276203        3.6034627062
  H         3.9803150433        4.3077690211        4.1983138666
  H         4.9055050216        5.7862733438        4.4580164229
  H         5.4451693831        4.3698338040        5.3541507603
  C         4.9737210527        4.7184890224        4.4642677193
       5
 i =       47, time =       47.000, E =        -8.0727811220
  H         5.6503244858        4.5058189981        3.6351287381
  H         4.0033508598        4.3073463931        4.1983639910
  H         4.8960938668        5.7711640469        4.4454748892
  H         5.4538127409        4.3573012189        5.3628519420
  C         4.9782014468        4.7161964135        4.4557386531
       5
 i =       48, time =       48.000, E =        -8.0707843406
  H         5.6311405799        4.5149520793        3.6566821765
  H         4.0252213931        4.3012253231        4.1977716698
  H         4.8873974439        5.7668933618        4.4339133088
  H         5.4478277124        4.3497735101        5.3813560627
  C         4.9839378665        4.7142735720        4.4488992924
       5
 i =       49, time =       49.000, E =        -8.0695544196
  H         5.6269825175        4.5119598152        3.6752222376
  H         4.0259908688        4.2992672547        4.1962659859
  H         4.8692427730        5.7825422249        4.4304716010
  H         5.4369989889        4.3460918679        5.4050948277
  C         4.9878557103        4.7093972683        4.4461607529
       5
 i =       50, time =       50.000, E =        -8.0718346783
  H         5.6467433513        4.5027512570        3.6720489993
  H         4.0175276325        4.2771433345        4.2013601254
  H         4.8545571991        5.7994122547        4.4350654715
  H         5.4165579802        4.3487805015        5.4184128405
  C         4.9938029278        4.7038790248        4.4455796383
       5
 i =       51, time =       51.000, E =        -8.0736752655
  H         5.6699894063        4.4936665423        3.6556806779
  H         4.0162459274        4.2465577968        4.2042471548
  H         4.8295239604        5.8027577825        4.4305741050
  H         5.4115414564        4.3441177998        5.4212356958
  C         5.0002716033        4.7006090685        4.4477578759
       5
 i =       52, time =       52.000, E =        -8.0739417530
  H         5.6844402114        4.4862041768        3.6368800653
  H         4.0074001481        4.2244205201        4.2136745389
  H         4.8146295895        5.8089032482        4.4137554470
  H         5.4036029358        4.3415728105        5.4185450801
  C         5.0011035901        4.6989222794        4.4516076063
       5
 i =       53, time =       53.000, E =        -8.0733365347
  H         5.7077985056        4.4750528461        3.6278615226
  H         3.9980622093        4.2009927608        4.2245438199
  H         4.7912882273        5.8065603810        4.4064634636
  H         5.3823137188        4.3443427094        5.4181203667
  C         5.0007756565        4.7010115770        4.4545107443
       5
 i =       54, time =       54.000, E =        -8.0732991642
  H         5.7154680676        4.4590270945        3.6279484921
  H         4.0099059348        4.1912388175        4.2516911065
  H         4.7859866659        5.8133743432        4.4156543247
  H         5.3702106864        4.3508476347        5.4062992443
  C         5.0042960162        4.7025640442        4.4555211498
       5
 i =       55, time =       55.000, E =        -8.0738055151
  H         5.7208332686        4.4357649201        3.6314927505
  H         4.0333089877        4.1925752441        4.2755985696
  H         4.7843184257        5.8072299479        4.4378222909
  H         5.3619820547        4.3556256810        5.4067134220
  C         5.0101785208        4.7044718410        4.4579958720
       5
 i =       56, time =       56.000, E =        -8.0744801943
  H         5.7247328304        4.4142640143        3.6337894190
  H         4.0635484713        4.1968162209        4.3075547491
  H         4.8058134328        5.7866992512        4.4564173825
  H         5.3627036668        4.3751062316        5.4194063581
  C         5.0160200258        4.7102005888        4.4581595132
       5
 i =       57, time =       57.000, E =        -8.0730783667
  H         5.7347159980        4.3834272370        3.6381248127
  H         4.0946764776        4.2026195209        4.3292655424
  H         4.8396905041        5.7752019997        4.4762276551
  H         5.3659518283        4.3900922160        5.4311255526
  C         5.0178111496        4.7135631641        4.4566261992
       5
 i =       58, time =       58.000, E =        -8.0721264941
  H         5.7332245175        4.3731412897        3.6624457407
  H         4.1053382226        4.2128939880        4.3446334928
  H         4.8552399763        5.7628211856        4.4930309273
  H         5.3698047263        4.4109423102        5.4441754083
  C         5.0217186368        4.7199503462        4.4557752729
       5
 i =       59, time =       59.000, E =        -8.0725168864
  H         5.7350058932        4.3684725713        3.6853180297
  H         4.1017471202        4.2127057388        4.3473487129
  H         4.8676542299        5.7592632346        4.5025576106
  H         5.3791922722        4.4162960625        5.4605404807
  C         5.0266869697        4.7194845087        4.4565809408
       5
 i =       60, time =       60.000, E =        -8.0736664246
  H         5.7495184021        4.3864913843        3.7065437831
  H         4.0868325791        4.2047647196        4.3555128780
  H         4.8739626109        5.7712150346        4.5125385006
  H         5.3854754573        4.4156019404        5.4840481479
  C         5.0329385650        4.7166546449        4.4601366994
       5
 i =       61, time =       61.000, E =        -8.0733971447
  H         5.7695666824        4.4008714089        3.7180402573
  H         4.0721432184        4.1831915579        4.3555812349
  H         4.8809926619        5.7829753781        4.5202860980
  H         5.3978846486        4.4196464609        5.5107420249
  C         5.0342546679        4.7126874542        4.4638115540
       5
 i =       62, time =       62.000, E =        -8.0721297562
  H         5.7845481265        4.4212129646        3.7225743532
  H         4.0437141921        4.1618277658        4.3583241781
  H         4.9098169145        5.8136643827        4.5126652655
  H         5.4142663427        4.4128637837        5.5180301834
  C         5.0380459319        4.7079666265        4.4698260345
       5
 i =       63, time =       63.000, E =        -8.0706628099
  H         5.8143054759        4.4437777266        3.7233935752
  H         4.0341919120        4.1473836513        4.3536781469
  H         4.9390711832        5.8408184576        4.5043301363
  H         5.4113263644        4.4097833404        5.5052832937
  C         5.0377675260        4.7024244080        4.4770206842
       5
 i =       64, time =       64.000, E =        -8.0691920943
  H         5.8246266314        4.4580466042        3.7299842350
  H         4.0223761100        4.1348910583        4.3494475785
  H         4.9668153496        5.8444123989        4.4935582036
  H         5.4122318421        4.4015616558        5.4871285985
  C         5.0350897019        4.6938696220        4.4790048687
       5
 i =       65, time =       65.000, E =        -8.0697999921
  H         5.8246764987        4.4562223224        3.7440266990
  H         4.0240708453        4.1253449547        4.3328213118
  H         4.9913111276        5.8240728415        4.5017717186
  H         5.3990219749        4.3963276555        5.4725508870
  C         5.0301046998        4.6904439605        4.4832921398
       5
 i =       66, time =       66.000, E =        -8.0721124304
  H         5.8176991598        4.4492021776        3.7578196067
  H         4.0494123403        4.1325326692        4.3231187428
  H         4.9955778913        5.7988775144        4.5120598923
  H         5.3876688055        4.3982753158        5.4679497575
  C         5.0236989267        4.6900499853        4.4859802974
       5
 i =       67, time =       67.000, E =        -8.0729229222
  H         5.8203047171        4.4394381380        3.7542560419
  H         4.0845805893        4.1405706386        4.2970360517
  H         4.9850242766        5.7691511859        4.5222935843
  H         5.3821724717        4.4190461219        5.4651093402
  C         5.0205990280        4.6900936529        4.4885027746
       5
 i =       68, time =       68.000, E =        -8.0719863607
  H         5.8111859935        4.4423837202        3.7525420091
  H         4.1247290354        4.1475668815        4.2672229750
  H         4.9689991942        5.7426774934        4.5212857803
  H         5.3808259511        4.4321068994        5.4623277214
  C         5.0224355977        4.6835609225        4.4931635155
       5
 i =       69, time =       69.000, E =        -8.0708512186
  H         5.7886551320        4.4465560958        3.7497789856
  H         4.1608827388        4.1549545820        4.2258491757
  H         4.9575630915        5.7417131735        4.5152410970
  H         5.3824975561        4.4529698375        5.4758898097
  C         5.0266760753        4.6760208215        4.4977842935
       5
 i =       70, time =       70.000, E =        -8.0704511422
  H         5.7711270405        4.4430529420        3.7454744652
  H         4.1758432469        4.1606950076        4.1808901292
  H         4.9446842647        5.7470490857        4.5074536502
  H         5.3933620163        4.4647335172        5.5003352655
  C         5.0320744986        4.6674316168        4.5000617693
       5
 i =       71, time =       71.000, E =        -8.0700879234
  H         5.7599394763        4.4334192349        3.7364163244
  H         4.1824993662        4.1627670906        4.1567122876
  H         4.9305735936        5.7519789839        4.4886813003
  H         5.4007946786        4.4676572163        5.5107300841
  C         5.0346038457        4.6639287867        4.4996603942
       5
 i =       72, time =       72.000, E =        -8.0710596936
  H         5.7521981344        4.4185531154        3.7198261217
  H         4.1693233653        4.1554986180        4.1301814291
  H         4.9194530756        5.7538991040        4.4775128383
  H         5.4043074754        4.4517170293        5.5170552115
  C         5.0368055239        4.6637231238        4.5024673920
       5
 i =       73, time =       73.000, E =        -8.0712833010
  H         5.7505830370        4.3982475925        3.7075175237
  H         4.1503393112        4.1481065548        4.1110202094
  H         4.8972584470        5.7562656296        4.4685826975
  H         5.4093913776        4.4329797999        5.5243083642
  C         5.0363911400        4.6613102952        4.4992240377
       5
 i =       74, time =       74.000, E =        -8.0717064982
  H         5.7527311785        4.3812745482        3.6979109066
  H         4.1326521658        4.1465116525        4.1047849812
  H         4.8821667185        5.7607008983        4.4433755663
  H         5.4001517238        4.4058261695        5.5140414552
  C         5.0403188464        4.6569016929        4.4974236854
       5
 i =       75, time =       75.000, E =        -8.0714778685
  H         5.7595286513        4.3622347918        3.6925707450
  H         4.1222732754        4.1462035337        4.0980956933
  H         4.8697261769        5.7492068214        4.4274670313
  H         5.3877140712        4.3870745119        5.4950840520