#     Step Nr.          Time[fs]        Kin.[a.u.]          Temp[K]            Pot.[a.u.]        Cons Qty[a.u.]        UsedTime[s]
         0            0.000000         0.007125335       300.000000000        -8.076157164        -8.069031829         0.000000000
         1            1.000000         0.007816835       329.114453190        -8.074967213        -8.068936759        87.051504432
         2            2.000000         0.005891219       248.039701291        -8.072768950        -8.068816577        26.212127381
         3            3.000000         0.006517007       274.387416941        -8.070480209        -8.068730410        26.267197908
         4            4.000000         0.004869965       205.041546619        -8.068067617        -8.068647497        26.178918662
         5            5.000000         0.005785890       243.604989777        -8.068225027        -8.068710935        25.938650388
         6            6.000000         0.005552025       233.758501346        -8.068759290        -8.068825530        26.171577443
         7            7.000000         0.006432662       270.836213851        -8.069514906        -8.068864416        26.366453319
         8            8.000000         0.007457767       313.996488690        -8.068607930        -8.068682070        26.111179383
         9            9.000000         0.003920266       165.056072459        -8.067905600        -8.068547924        26.306558221
        10           10.000000         0.007814273       329.006587418        -8.070268735        -8.068700038        26.354892594
        11           11.000000         0.011471918       483.005450564        -8.072929575        -8.068886057        26.287973096
        12           12.000000         0.013884665       584.590016616        -8.073480136        -8.068897064        26.230533603
        13           13.000000         0.011903144       501.161473746        -8.070943301        -8.068729610        26.381280474
        14           14.000000         0.008636808       363.638005288        -8.067034416        -8.068511685        26.234941581
        15           15.000000         0.008010831       337.282291342        -8.063401870        -8.068362615        26.368094639
        16           16.000000         0.006803943       286.468368123        -8.064223167        -8.068466641        25.876263414
        17           17.000000         0.005177174       217.976043615        -8.066226890        -8.068612466        26.254220971
        18           18.000000         0.009459979       398.296214107        -8.069660974        -8.068810544        26.171782493
        19           19.000000         0.012766947       537.530411396        -8.071304530        -8.068989222        26.238150986
        20           20.000000         0.007876028       331.606645652        -8.069265098        -8.068759005        26.480838653
        21           21.000000         0.007433559       312.977250865        -8.067050853        -8.068404757        26.302959007
        22           22.000000         0.006911377       290.991689323        -8.068586694        -8.068524959        26.229138993
        23           23.000000         0.010776149       453.711275974        -8.072345042        -8.068859241        26.252420313
        24           24.000000         0.012296147       517.708182868        -8.074900335        -8.069037774        26.315239255
        25           25.000000         0.006585219       277.259367920        -8.073607795        -8.068950445        26.481362044
        26           26.000000         0.008749135       368.367321762        -8.072524832        -8.068886127        26.236328999
        27           27.000000         0.008580868       361.282736813        -8.070590440        -8.068750888        26.277317929
        28           28.000000         0.006352345       267.454590121        -8.069652253        -8.068708322        26.438610852
        29           29.000000         0.006903906       290.677124024        -8.071091816        -8.068819018        26.429403249
        30           30.000000         0.008555426       360.211568427        -8.071878193        -8.068852383        22.803802851
        31           31.000000         0.009725656       409.482074688        -8.071617339        -8.068818840        26.176857973
        32           32.000000         0.007820479       329.267868675        -8.070679249        -8.068790826        26.225366115
        33           33.000000         0.006637324       279.453159895        -8.071457835        -8.068804237        29.798475161
        34           34.000000         0.009168525       386.025028784        -8.072376145        -8.068937546        26.211556319
        35           35.000000         0.006646795       279.851923452        -8.070453773        -8.068761868        26.269576753
        36           36.000000         0.006166591       259.633729104        -8.070062179        -8.068637989        26.281020882
        37           37.000000         0.009550100       402.090612377        -8.072941242        -8.068926299        26.271340174
        38           38.000000         0.006991021       294.344969078        -8.074895022        -8.069123893        26.198920612
        39           39.000000         0.007359180       309.845672572        -8.075391930        -8.069141138        26.283501076
        40           40.000000         0.006636236       279.407339335        -8.073715641        -8.068980306        22.621391687
        41           41.000000         0.005523943       232.576154703        -8.071475259        -8.068846647        26.293973180
        42           42.000000         0.003259893       137.252203716        -8.069549628        -8.068762995        26.276585620
        43           43.000000         0.002987243       125.772727686        -8.066916606        -8.068649607        26.188492721
        44           44.000000         0.004369369       183.964799820        -8.067013444        -8.068644579        26.369458785
        45           45.000000         0.005850367       246.319662139        -8.069313608        -8.068774738        26.173337063
        46           46.000000         0.008388316       353.175655351        -8.072101035        -8.069021989        26.250130645
        47           47.000000         0.006646246       279.828791745        -8.072781122        -8.069166610        26.156086667
        48           48.000000         0.005260860       221.499500381        -8.070784341        -8.068981258        26.267122162
        49           49.000000         0.003241143       136.462756474        -8.069554420        -8.068798117        26.174584532
        50           50.000000         0.005303365       223.289093962        -8.071834678        -8.068990646        26.293791745
        51           51.000000         0.005648084       237.802909666        -8.073675265        -8.069181020        26.259435597
        52           52.000000         0.004896764       206.169871594        -8.073941753        -8.069222769        26.234911891
        53           53.000000         0.004435104       186.732434611        -8.073336535        -8.069174352        26.051805705
        54           54.000000         0.005616843       236.487539115        -8.073299164        -8.069154332        26.354096669
        55           55.000000         0.005231903       220.280307719        -8.073805515        -8.069182543        26.124937832
        56           56.000000         0.008739796       367.974115902        -8.074480194        -8.069252752        22.595772015
        57           57.000000         0.006383995       268.787155184        -8.073078367        -8.069155858        26.043715232
        58           58.000000         0.004590632       193.280704977        -8.072126494        -8.069078886        26.165274160
        59           59.000000         0.003496474       147.213046155        -8.072516886        -8.069123666        26.048525276
        60           60.000000         0.006071696       255.638353824        -8.073666425        -8.069237000        22.697016668
        61           61.000000         0.006795152       286.098242367        -8.073397145        -8.069219377        26.237539364
        62           62.000000         0.007273635       306.243942310        -8.072129756        -8.069088933        26.159662064
        63           63.000000         0.008111928       341.538828498        -8.070662810        -8.069008397        26.275908531
        64           64.000000         0.004422357       186.195761284        -8.069192094        -8.068960359        26.271391847
        65           65.000000         0.004611320       194.151734846        -8.069799992        -8.069023939        26.224277343
        66           66.000000         0.004909137       206.690782650        -8.072112430        -8.069183466        26.131874978
        67           67.000000         0.007864153       331.106665818        -8.072922922        -8.069233698        26.228307498
        68           68.000000         0.009357766       393.992711296        -8.071986361        -8.069124682        25.859868186
        69           69.000000         0.011052586       465.350175336        -8.070851219        -8.069041424        26.162100227
        70           70.000000         0.004555004       191.780617754        -8.070451142        -8.069073569        26.249628825
        71           71.000000         0.004197973       176.748472647        -8.070087923        -8.069079972        26.313615728
        72           72.000000         0.004087545       172.099080493        -8.071059694        -8.069208658        26.182861735
        73           73.000000         0.006169899       259.773041544        -8.071283301        -8.069223681        26.375715087
        74           74.000000         0.005749098       242.055932366        -8.071706498        -8.069220914        26.108056157
        75           75.000000         0.006474189       272.584617372        -8.071477869        -8.069196024        26.315904111
        76           76.000000         0.004762311       200.508954631        -8.070702963        -8.069123932        26.243396318
        77           77.000000         0.003248003       136.751603706        -8.070288222        -8.069102971        26.196472127
        78           78.000000         0.005680107       239.151191133        -8.070966479        -8.069158882        26.045931477
        79           79.000000         0.007229825       304.399403960        -8.072152256        -8.069238469        29.816414342
        80           80.000000         0.006562576       276.306032889        -8.071970525        -8.069212737        26.326219668
        81           81.000000         0.006630055       279.147122417        -8.070405886        -8.069102023        26.124887400
        82           82.000000         0.007513751       316.353620150        -8.069181124        -8.068978153        22.635400206
        83           83.000000         0.007633149       321.380645292        -8.070764844        -8.069021375        26.357960601
        84           84.000000         0.009863599       415.289943294        -8.072521572        -8.069172429        26.242575990
        85           85.000000         0.006556476       276.049172855        -8.073104652        -8.069229971        26.298663848
        86           86.000000         0.004934541       207.760371947        -8.072328320        -8.069194812        26.091650116
        87           87.000000         0.002620458       110.329894347        -8.070495640        -8.069097785        29.838022872
        88           88.000000         0.003950634       166.334691446        -8.069360667        -8.069053313        26.034525524
        89           89.000000         0.002705024       113.890412701        -8.069735617        -8.069110885        26.263379532
        90           90.000000         0.004524518       190.497065797        -8.070324594        -8.069153075        26.119119897
        91           91.000000         0.006510863       274.128712794        -8.070975263        -8.069201846        26.262042177
        92           92.000000         0.005000400       210.533290373        -8.071047517        -8.069169570        26.167205484
        93           93.000000         0.004738286       199.497424274        -8.070532216        -8.069116182        26.164678766
        94           94.000000         0.006198104       260.960549855        -8.070960147        -8.069116747        26.317221726
        95           95.000000         0.007643153       321.801852530        -8.070993485        -8.069100975        26.260614347
        96           96.000000         0.006819283       287.114238038        -8.072205231        -8.069143264        26.278371088
        97           97.000000         0.008159926       343.559695788        -8.072709643        -8.069191379        26.283486561
        98           98.000000         0.009327944       392.737116829        -8.072536501        -8.069217055        26.346956885
        99           99.000000         0.003015262       126.952433351        -8.070284824        -8.069003478        26.285233179
       100          100.000000         0.002129750        89.669472330        -8.070314806        -8.068962232        26.254243860
       101          101.000000         0.005332270       224.506075096        -8.071577339        -8.069073628        26.191460490
       102          102.000000         0.006863111       288.959531794        -8.072889358        -8.069213672        26.119933563
       103          103.000000         0.007781198       327.614011447        -8.072345302        -8.069200721        26.247055460
       104          104.000000         0.006739450       283.752991223        -8.071522990        -8.069156518        26.234087598
       105          105.000000         0.002936379       123.631205008        -8.070299113        -8.069080411        26.268177652
       106          106.000000         0.005008017       210.853980883        -8.070572847        -8.069138755        26.199616233
       107          107.000000         0.007113396       299.497354766        -8.070842701        -8.069198728        26.228029094
       108          108.000000         0.009248604       389.396640200        -8.070943705        -8.069176583        26.217514138
       109          109.000000         0.009415405       396.419483457        -8.070383042        -8.069075241        26.262131964
       110          110.000000         0.006995249       294.522987944        -8.069129800        -8.068967280        26.155470670
       111          111.000000         0.007588598       319.504898121        -8.070450143        -8.069069740        26.226690265
       112          112.000000         0.006713711       282.669298289        -8.073068840        -8.069237011        22.614132935
       113          113.000000         0.007067159       297.550617102        -8.073691430        -8.069264509        22.717036128
       114          114.000000         0.005861656       246.794985483        -8.073081563        -8.069222164        26.231327844
       115          115.000000         0.006910367       290.949162687        -8.072636172        -8.069166781        26.307828531
       116          116.000000         0.005897608       248.308688820        -8.070589392        -8.069008053        26.180494223
       117          117.000000         0.006452722       271.680805226        -8.070627956        -8.069039639        29.829578402
       118          118.000000         0.009362923       394.209823953        -8.069598891        -8.069057127        26.116402940
       119          119.000000         0.006405143       269.677588075        -8.068778804        -8.069032018        26.058935371
       120          120.000000         0.006540436       275.373854376        -8.069928317        -8.069117079        26.062539962
       121          121.000000         0.006070639       255.593845782        -8.070627384        -8.069200705        26.251049336
       122          122.000000         0.007007825       295.052461250        -8.070949937        -8.069222677        22.619051559
       123          123.000000         0.007811293       328.881102338        -8.071377002        -8.069229936        26.115561719
       124          124.000000         0.009122402       384.083106876        -8.070264695        -8.069105386        26.115917050
       125          125.000000         0.008724664       367.337009004        -8.070014800        -8.069134898        26.251684773
       126          126.000000         0.007428065       312.745938251        -8.069676945        -8.069137079        26.123840608
       127          127.000000         0.006580629       277.066108078        -8.069601972        -8.069167837        26.186570981
       128          128.000000         0.005970240       251.366712722        -8.069398491        -8.069217605        22.631653040
       129          129.000000         0.006415981       270.133890730        -8.068749032        -8.069204594        26.270746762
       130          130.000000         0.005992243       252.293143335        -8.067922934        -8.069158376        26.125776228
       131          131.000000         0.004286276       180.466299823        -8.067401013        -8.069115172        26.092894512
       132          132.000000         0.004628051       194.856170125        -8.067111053        -8.069067271        26.178657611
       133          133.000000         0.006505952       273.921949250        -8.068255002        -8.069117601        26.273959369
       134          134.000000         0.011393991       479.724448624        -8.070450783        -8.069155019        26.311844516
       135          135.000000         0.013829045       582.248227733        -8.071640818        -8.069202672        26.263442299
       136          136.000000         0.012577822       529.567643440        -8.067740122        -8.068896750        26.037889047
       137          137.000000         0.012279752       517.017934176        -8.063740767        -8.068559991        29.663075503
       138          138.000000         0.012326002       518.965202341        -8.065466676        -8.069012232        26.225221191
       139          139.000000         0.010264387       432.164404532        -8.066518278        -8.069043208        26.249338319
       140          140.000000         0.007969177       335.528522494        -8.063418238        -8.068839264        29.725328748
       141          141.000000         0.004082686       171.894510640        -8.059999221        -8.068515976        26.253159275
       142          142.000000         0.007578690       319.087758878        -8.061337331        -8.068609389        29.639474834
       143          143.000000         0.011383789       479.294937979        -8.064863416        -8.068811702        25.994476760
       144          144.000000         0.014178706       596.970101933        -8.066719071        -8.068814038        26.320571259
       145          145.000000         0.013452559       566.396929584        -8.067637733        -8.068808986        26.237473432
       146          146.000000         0.011253669       473.816458767        -8.068904634        -8.068814844        22.488714263
       147          147.000000         0.013886522       584.668193995        -8.069925365        -8.068817080        26.065067693
       148          148.000000         0.012725578       535.788664165        -8.071397952        -8.068915956        26.193589386
       149          149.000000         0.011324128       476.782991400        -8.071209424        -8.068984901        26.239958805
       150          150.000000         0.008592043       361.753267895        -8.068599817        -8.068889415        26.106753779
       151          151.000000         0.008690902       365.915551227        -8.066222014        -8.068791550        29.258781875
       152          152.000000         0.009302056       391.647127274        -8.064966192        -8.068887345        25.857493933
       153          153.000000         0.007292160       307.023891227        -8.065772751        -8.068942707        26.129025615
       154          154.000000         0.005412154       227.869488722        -8.064586581        -8.068860641        26.323982846
       155          155.000000         0.005198005       218.853079968        -8.062618028        -8.068695741        26.265372890
       156          156.000000         0.004417192       185.978299951        -8.062067026        -8.068506256        26.111224899
       157          157.000000         0.006456574       271.842982950        -8.064655713        -8.068587151        26.175908916
       158          158.000000         0.011626218       489.501969508        -8.069327192        -8.068887798        29.607559759
       159          159.000000         0.008819696       371.338198356        -8.071412299        -8.068882466        26.077885590
       160          160.000000         0.008192067       344.912958029        -8.071370110        -8.068812048        26.113562427
       161          161.000000         0.007960619       335.168227266        -8.071231679        -8.068767348        26.057699637
       162          162.000000         0.006229840       262.296743550        -8.071031166        -8.068717733        26.185653471
       163          163.000000         0.009899581       416.804910449        -8.073267782        -8.068862172        26.127157265
       164          164.000000         0.010181093       428.657493535        -8.075378703        -8.069085944        26.144586426
       165          165.000000         0.006971986       293.543517253        -8.073724074        -8.068996246        26.051856674
       166          166.000000         0.005137977       216.325700977        -8.071082003        -8.068802616        26.082913053
       167          167.000000         0.007106671       299.214199783        -8.070784952        -8.068845728        26.208106347
       168          168.000000         0.007227091       304.284278063        -8.071090017        -8.068979508        26.156113646
       169          169.000000         0.005915422       249.058694643        -8.070149572        -8.068976485        26.073721499
       170          170.000000         0.006522023       274.598582892        -8.068777198        -8.068929961        26.183209975
       171          171.000000         0.003943329       166.027101724        -8.068004746        -8.068904469        25.970054041
       172          172.000000         0.002177340        91.673156462        -8.067823489        -8.068903642        26.070590126
       173          173.000000         0.004048727       170.464696829        -8.068943066        -8.068952074        26.123776364
       174          174.000000         0.004858881       204.574878002        -8.069629342        -8.068957161        26.027851067
       175          175.000000         0.005336631       224.689700096        -8.070383361        -8.068936503        26.085098347
       176          176.000000         0.003911916       164.704511098        -8.071334302        -8.068933344        26.197360567
       177          177.000000         0.003524147       148.378164205        -8.071475410        -8.068920660        26.175939653
       178          178.000000         0.006762857       284.738488746        -8.072248001        -8.068965969        26.307982450
       179          179.000000         0.009916169       417.503310075        -8.072877303        -8.068968512        26.293704637
       180          180.000000         0.009134441       384.589988615        -8.073060397        -8.068938174        26.049284234
       181          181.000000         0.007910737       333.068040342        -8.072058168        -8.068831017        26.013444784
       182          182.000000         0.007024058       295.735913529        -8.071078773        -8.068737014        26.056268812
       183          183.000000         0.005567665       234.417004939        -8.072559172        -8.068873489        26.182917883
       184          184.000000         0.008336228       350.982576022        -8.073130185        -8.068913193        26.225560161
       185          185.000000         0.005978713       251.723471521        -8.071623469        -8.068795131        26.016445405
       186          186.000000         0.007080700       298.120757275        -8.071749298        -8.068824595        26.156295576
       187          187.000000         0.004023560       169.405107297        -8.072521906        -8.068896697        26.302894531
       188          188.000000         0.005889381       247.962277049        -8.072547244        -8.068907995        25.978820350
       189          189.000000         0.004296739       180.906836351        -8.071678763        -8.068853634        26.138946455
       190          190.000000         0.004605741       193.916844437        -8.071153609        -8.068817578        26.170107671
       191          191.000000         0.003104857       130.724700869        -8.071153866        -8.068839984        26.042849691
       192          192.000000         0.005433979       228.788366689        -8.072221455        -8.068918045        26.131075825
       193          193.000000         0.003918015       164.961303244        -8.071764190        -8.068853419        26.243493562
       194          194.000000         0.002983991       125.635829524        -8.070320021        -8.068733392        26.262364940
       195          195.000000         0.004350222       183.158633500        -8.069801358        -8.068704480        26.078114199
       196          196.000000         0.004238164       178.440648485        -8.069148894        -8.068657702        26.162134751
       197          197.000000         0.008203504       345.394482270        -8.070452843        -8.068705751        26.192088429
       198          198.000000         0.011147226       469.334833369        -8.073727498        -8.068929128        26.164407003
       199          199.000000         0.011526733       485.313354111        -8.074235833        -8.068984356        26.163752021
       200          200.000000         0.006430253       270.734763181        -8.070635616        -8.068651384        26.271284082
