       5
 i =        0, time =        0.000, E =        -8.0761571639
  H        -0.0001525030        0.0002664365        0.0003794923
  H         0.0005372668       -0.0000683902        0.0000326319
  H        -0.0002258206       -0.0004742962        0.0000111898
  H        -0.0001076748        0.0002250392       -0.0004283859
  C        -0.0000470388        0.0000390354        0.0000193492
       5
 i =        1, time =        1.000, E =        -8.0749672127
  H        -0.0054612482        0.0067981070        0.0063381561
  H         0.0012365429       -0.0034739663        0.0009549959
  H         0.0057269871        0.0066421212        0.0014891889
  H        -0.0065692455        0.0118272065       -0.0149672439
  C         0.0050705111       -0.0218030461        0.0061948503
       5
 i =        2, time =        2.000, E =        -8.0727689500
  H        -0.0111684868        0.0128065381        0.0111356404
  H        -0.0021431885       -0.0055463738       -0.0006829948
  H         0.0065058428        0.0032684026        0.0035563690
  H        -0.0091003507        0.0199575487       -0.0234265957
  C         0.0159100672       -0.0304923559        0.0094250375
       5
 i =        3, time =        3.000, E =        -8.0704802088
  H        -0.0136671845        0.0149270037        0.0074284205
  H        -0.0121281779       -0.0075005457       -0.0016927635
  H         0.0027292960       -0.0127674346        0.0060635277
  H        -0.0115171954        0.0253046545       -0.0236728302
  C         0.0345881797       -0.0199696113        0.0118799692
       5
 i =        4, time =        4.000, E =        -8.0680676174
  H        -0.0169195150        0.0176029210        0.0057835894
  H        -0.0181281779       -0.0102007580       -0.0019115463
  H         0.0024484115       -0.0209382609        0.0073680488
  H        -0.0137560731        0.0269614977       -0.0198572238
  C         0.0463657793       -0.0134329984        0.0086225194
       5
 i =        5, time =        5.000, E =        -8.0682250268
  H        -0.0143021002        0.0142075568       -0.0015965346
  H        -0.0164202203       -0.0118484025       -0.0006334020
  H         0.0038726665       -0.0210463114        0.0076515058
  H        -0.0145948652        0.0256034255       -0.0136108291
  C         0.0414606653       -0.0069287404        0.0082012179
       5
 i =        6, time =        6.000, E =        -8.0687592895
  H        -0.0089747236        0.0071888837       -0.0117999359
  H        -0.0116059580       -0.0144658112        0.0021345139
  H         0.0080491943       -0.0147082646        0.0077554228
  H        -0.0141709416        0.0208971057       -0.0025251471
  C         0.0267279008        0.0010645105        0.0044646694
       5
 i =        7, time =        7.000, E =        -8.0695149065
  H        -0.0014472039       -0.0039601085       -0.0221356143
  H        -0.0135912499       -0.0142499039        0.0030632470
  H         0.0142698181        0.0051779835        0.0062414379
  H        -0.0121844933        0.0144614130        0.0056459657
  C         0.0129794725       -0.0014641092        0.0072300960
       5
 i =        8, time =        8.000, E =        -8.0686079300
  H         0.0109136121       -0.0199857246       -0.0394149339
  H        -0.0125881588       -0.0112323110        0.0026954403
  H         0.0153792170        0.0196558480        0.0047616876
  H        -0.0076253194        0.0063629158        0.0175563108
  C        -0.0060562186        0.0051533416        0.0144603315
       5
 i =        9, time =        9.000, E =        -8.0679055998
  H         0.0112270614       -0.0203835026       -0.0387244916
  H        -0.0110065061       -0.0098358600        0.0013976511
  H         0.0194026971        0.0358066508        0.0037030912
  H        -0.0025695337        0.0006890008        0.0263827192
  C        -0.0170499221       -0.0063338120        0.0073003551
       5
 i =       10, time =       10.000, E =        -8.0702687353
  H         0.0068775779       -0.0141062706       -0.0292950737
  H        -0.0022555553       -0.0086204098        0.0017300358
  H         0.0166397854        0.0354677458        0.0022794819
  H        -0.0020233739       -0.0018658271        0.0246044636
  C        -0.0192385457       -0.0109355161        0.0007374267
       5
 i =       11, time =       11.000, E =        -8.0729295755
  H        -0.0045360445       -0.0034472986       -0.0090814062
  H         0.0128714883       -0.0079055188        0.0030899651
  H         0.0107619256        0.0273760225        0.0015219938
  H        -0.0031859532       -0.0032425681        0.0172934054
  C        -0.0159096019       -0.0128451974       -0.0127829704
       5
 i =       12, time =       12.000, E =        -8.0734801358
  H        -0.0126743183        0.0025492579        0.0074176213
  H         0.0261257517       -0.0049120035        0.0029976294
  H        -0.0015956439        0.0033424850        0.0014151654
  H        -0.0026386112       -0.0057242889        0.0107511429
  C        -0.0092131612        0.0046958171       -0.0225320384
       5
 i =       13, time =       13.000, E =        -8.0709433013
  H        -0.0157412886        0.0037205190        0.0176959779
  H         0.0349879251       -0.0022978988        0.0039536053
  H        -0.0114759819       -0.0160902735        0.0004798186
  H        -0.0047408831       -0.0051967456       -0.0018208673
  C        -0.0030333160        0.0198302458       -0.0202516151
       5
 i =       14, time =       14.000, E =        -8.0670344163
  H        -0.0158494391        0.0017601206        0.0221717174
  H         0.0371547585        0.0002218811        0.0029954406
  H        -0.0193084612       -0.0322301101       -0.0006982216
  H        -0.0058724921       -0.0033917247       -0.0156587915
  C         0.0038755038        0.0336252750       -0.0087505020
       5
 i =       15, time =       15.000, E =        -8.0634018704
  H        -0.0094591490       -0.0032233244        0.0185657410
  H         0.0333662247        0.0031351751        0.0021791116
  H        -0.0250156275       -0.0437319745       -0.0023220592
  H        -0.0056276400       -0.0020884247       -0.0268277999
  C         0.0067353159        0.0458983192        0.0084596804
       5
 i =       16, time =       16.000, E =        -8.0642231666
  H        -0.0045565922       -0.0064700679        0.0173675879
  H         0.0204252311        0.0065397443        0.0013737335
  H        -0.0274122084       -0.0404282380       -0.0038011968
  H        -0.0030455049       -0.0048612053       -0.0274594045
  C         0.0145976759        0.0452067119        0.0125755157
       5
 i =       17, time =       17.000, E =        -8.0662268896
  H         0.0032218783       -0.0115528172        0.0087409496
  H         0.0095722782        0.0084387188        0.0011419776
  H        -0.0266928583       -0.0335644308       -0.0051955542
  H        -0.0003260092       -0.0089418448       -0.0221551093
  C         0.0142456111        0.0456010790        0.0175201720
       5
 i =       18, time =       18.000, E =        -8.0696609742
  H         0.0035789539       -0.0105867553        0.0085203140
  H         0.0047393032        0.0090621126        0.0004037320
  H        -0.0213466044       -0.0183509226       -0.0058909906
  H         0.0025984170       -0.0123079433       -0.0131472060
  C         0.0104505383        0.0321557437        0.0101502320
       5
 i =       19, time =       19.000, E =        -8.0713045303
  H         0.0050002372       -0.0103292296        0.0064141696
  H        -0.0013691280        0.0089846629       -0.0015108645
  H        -0.0102913819        0.0109680682       -0.0058456589
  H         0.0077454411       -0.0179358985        0.0005060351
  C        -0.0010762388        0.0082967676        0.0004553318
       5
 i =       20, time =       20.000, E =        -8.0692650982
  H         0.0064351090       -0.0096932734        0.0017219474
  H        -0.0093463683        0.0082503312       -0.0035581566
  H         0.0005533853        0.0394609828       -0.0046343375
  H         0.0146466608       -0.0262968929        0.0251088666
  C        -0.0122793077       -0.0117132317       -0.0186225181
       5
 i =       21, time =       21.000, E =        -8.0670508534
  H         0.0050724400       -0.0045520944        0.0021210807
  H        -0.0247391328        0.0048331303       -0.0047423604
  H         0.0091752937        0.0601934506       -0.0039785734
  H         0.0154909097       -0.0271931493        0.0327807032
  C        -0.0049862589       -0.0332532442       -0.0261642694
       5
 i =       22, time =       22.000, E =        -8.0685866938
  H         0.0083931854       -0.0018481692       -0.0019259631
  H        -0.0382942971        0.0007224715       -0.0038902238
  H         0.0103929554        0.0529849324       -0.0050460043
  H         0.0107274402       -0.0198611423        0.0229433546
  C         0.0087974462       -0.0319731266       -0.0120690442
       5
 i =       23, time =       23.000, E =        -8.0723450419
  H         0.0081268992        0.0004829148       -0.0024322372
  H        -0.0280134733        0.0007991554       -0.0017151766
  H         0.0041881959        0.0219915123       -0.0056524516
  H         0.0101144891       -0.0178941351        0.0263637999
  C         0.0055987501       -0.0053669776       -0.0165523562
       5
 i =       24, time =       24.000, E =        -8.0749003349
  H         0.0074928336        0.0038179055       -0.0029431828
  H        -0.0120877909        0.0016447067        0.0019653054
  H        -0.0002386320       -0.0096472227       -0.0049456097
  H         0.0031625110       -0.0054989876        0.0105161363
  C         0.0016816751        0.0096850189       -0.0045846532
       5
 i =       25, time =       25.000, E =        -8.0736077954
  H         0.0035488011        0.0089092612        0.0002254535
  H         0.0022952297        0.0023750256        0.0038792634
  H        -0.0007357494       -0.0296295283       -0.0038799322
  H        -0.0021325302        0.0051253137       -0.0016115856
  C        -0.0029637404        0.0132205202        0.0013927334
       5
 i =       26, time =       26.000, E =        -8.0725248325
  H         0.0067745719        0.0043651971       -0.0105107692
  H         0.0089354318        0.0013977800        0.0039918217
  H         0.0009794739       -0.0330590980       -0.0020997302
  H        -0.0056367506        0.0112585043       -0.0056818069
  C        -0.0110406003        0.0160378640        0.0143005209
       5
 i =       27, time =       27.000, E =        -8.0705904405
  H         0.0149073517       -0.0035873962       -0.0258868531
  H         0.0154550021        0.0005478676        0.0034306759
  H         0.0042882646       -0.0304785025       -0.0003858269
  H        -0.0080015110        0.0178663519       -0.0116502251
  C        -0.0266363497        0.0156499869        0.0344789601
       5
 i =       28, time =       28.000, E =        -8.0696522531
  H         0.0138287901       -0.0025055892       -0.0241834348
  H         0.0209107526       -0.0003906434        0.0049477880
  H         0.0065432354       -0.0294654928        0.0006852641
  H        -0.0104779631        0.0210078398       -0.0163831559
  C        -0.0307952773        0.0113525516        0.0349178697
       5
 i =       29, time =       29.000, E =        -8.0710918163
  H         0.0048028986        0.0035456168       -0.0106720400
  H         0.0246242096       -0.0010083040        0.0058858276
  H         0.0081152964       -0.0209995232        0.0010555648
  H        -0.0106428336        0.0193817849       -0.0179064470
  C        -0.0268933052       -0.0009192016        0.0216244085
       5
 i =       30, time =       30.000, E =        -8.0718781930
  H        -0.0074910577        0.0120265199        0.0067035018
  H         0.0263403502       -0.0004298317        0.0047165723
  H         0.0098608167       -0.0064303101        0.0006860694
  H        -0.0079138508        0.0162467926       -0.0160270236
  C        -0.0207950634       -0.0214131822        0.0039113501
       5
 i =       31, time =       31.000, E =        -8.0716173385
  H        -0.0188142211        0.0169455691        0.0208254440
  H         0.0191393158       -0.0012324707        0.0011860761
  H         0.0104176917        0.0093181552        0.0031285880
  H        -0.0023085097        0.0117175817       -0.0063452586
  C        -0.0084347222       -0.0367515863       -0.0187988948
       5
 i =       32, time =       32.000, E =        -8.0706792487
  H        -0.0191735098        0.0160577195        0.0233460020
  H        -0.0057077119       -0.0068803209       -0.0051799323
  H         0.0114357491        0.0317011466        0.0048362425
  H         0.0062034139        0.0021767460        0.0109602376
  C         0.0072409269       -0.0430601965       -0.0339615267
       5
 i =       33, time =       33.000, E =        -8.0714578350
  H        -0.0094938444        0.0093871062        0.0149579374
  H        -0.0262384989       -0.0095988181       -0.0091693370
  H         0.0087302543        0.0325158110        0.0039258060
  H         0.0103751621       -0.0013946653        0.0140302407
  C         0.0166221603       -0.0309142942       -0.0237423749
       5
 i =       34, time =       34.000, E =        -8.0723761455
  H         0.0087222514       -0.0034667520       -0.0071218409
  H        -0.0325168648       -0.0100404770       -0.0100886981
  H         0.0056583475        0.0267837734        0.0042685242
  H         0.0086154922        0.0030916158        0.0029691070
  C         0.0095114575       -0.0163703527        0.0099740767
       5
 i =       35, time =       35.000, E =        -8.0704537728
  H         0.0284569490       -0.0149969539       -0.0313523515
  H        -0.0337370830       -0.0098212931       -0.0099117811
  H         0.0030923302        0.0209455596        0.0032410156
  H         0.0053015284        0.0070873102       -0.0100864116
  C        -0.0031337899       -0.0032186397        0.0481032375
       5
 i =       36, time =       36.000, E =        -8.0700621793
  H         0.0390708814       -0.0204284641       -0.0445406900
  H        -0.0149701503       -0.0037596341       -0.0067621604
  H         0.0007372668        0.0120199941        0.0018931041
  H         0.0021913565        0.0077613893       -0.0169618870
  C        -0.0270545030        0.0044057610        0.0663586836
       5
 i =       37, time =       37.000, E =        -8.0729412419
  H         0.0295088435       -0.0143062307       -0.0326071323
  H        -0.0003537001        0.0010321363       -0.0030906994
  H         0.0000690288        0.0013367742       -0.0004030735
  H         0.0012494704        0.0046056100       -0.0129160821
  C        -0.0304949733        0.0073292674        0.0490100778
       5
 i =       38, time =       38.000, E =        -8.0748950217
  H         0.0135405775       -0.0074153870       -0.0134140470
  H         0.0047158863        0.0032827077       -0.0011517223
  H        -0.0014793000       -0.0078179595       -0.0016247075
  H        -0.0002540177        0.0033037060       -0.0131288914
  C        -0.0165421976        0.0086415730        0.0293201756
       5
 i =       39, time =       39.000, E =        -8.0753919298
  H        -0.0030691950       -0.0008631330        0.0050107847
  H         0.0057873787        0.0035190435        0.0002129256
  H        -0.0019441788       -0.0142212471       -0.0025601046
  H        -0.0006614178        0.0005690345       -0.0088013615
  C        -0.0001262138        0.0109886299        0.0061462365
       5
 i =       40, time =       40.000, E =        -8.0737156411
  H        -0.0184782533        0.0059863867        0.0213808776
  H         0.0108001442        0.0050507105        0.0024958167
  H        -0.0012764934       -0.0179534751       -0.0038035074
  H        -0.0000006451       -0.0029917542       -0.0011972338
  C         0.0089423421        0.0098981454       -0.0188583785
       5
 i =       41, time =       41.000, E =        -8.0714752592
  H        -0.0275139878        0.0089948138        0.0317805817
  H         0.0071125090        0.0030260962        0.0031853720
  H        -0.0014051852       -0.0171655931       -0.0026665877
  H        -0.0017426459       -0.0028346666       -0.0014822036
  C         0.0235361789        0.0079689339       -0.0307975366
       5
 i =       42, time =       42.000, E =        -8.0695496281
  H        -0.0309499323        0.0105019594        0.0355443094
  H         0.0049076879        0.0012826823        0.0049581289
  H        -0.0010091880       -0.0210642798       -0.0016494862
  H        -0.0051167192       -0.0019229168       -0.0034335991
  C         0.0321537632        0.0111891995       -0.0353892561
       5
 i =       43, time =       43.000, E =        -8.0669166062
  H        -0.0359557693        0.0102007490        0.0398853495
  H         0.0096103754        0.0017550752        0.0059929121
  H        -0.0008356649       -0.0222717342        0.0001328288
  H        -0.0009295467       -0.0060873888        0.0083019607
  C         0.0280961010        0.0163903324       -0.0542700279
       5
 i =       44, time =       44.000, E =        -8.0670134436
  H        -0.0350216115        0.0094669593        0.0378287654
  H         0.0074431547       -0.0007227014        0.0062884967
  H        -0.0004511184       -0.0184849240        0.0014543393
  H         0.0023643268       -0.0099323908        0.0192342398
  C         0.0256422379        0.0196729233       -0.0647457530
       5
 i =       45, time =       45.000, E =        -8.0693136076
  H        -0.0297439810        0.0065607339        0.0319468948
  H         0.0053885396       -0.0027620933        0.0065788038
  H        -0.0013034727       -0.0013574021        0.0028880684
  H         0.0035068855       -0.0116421844        0.0232943294
  C         0.0221151273        0.0092010168       -0.0646510123
       5
 i =       46, time =       46.000, E =        -8.0721010355
  H        -0.0143869901        0.0002343087        0.0154328399
  H         0.0081929022       -0.0023125073        0.0091944178
  H        -0.0029326579        0.0192747358        0.0053602165
  H         0.0001343687       -0.0094229548        0.0188033864
  C         0.0089491099       -0.0077670899       -0.0487397818
       5
 i =       47, time =       47.000, E =        -8.0727811220
  H         0.0072171327       -0.0070376243       -0.0094214579
  H        -0.0033026514       -0.0073129978        0.0069220874
  H        -0.0033023169        0.0284184091        0.0072495965
  H        -0.0056930594       -0.0035134921        0.0072988194
  C         0.0050448462       -0.0105434307       -0.0120081419
       5
 i =       48, time =       48.000, E =        -8.0707843406
  H         0.0269838554       -0.0134987259       -0.0308122137
  H        -0.0127503312       -0.0108677709        0.0045143036
  H        -0.0035009228        0.0293791638        0.0084258880
  H        -0.0090511596        0.0014203536       -0.0031962675
  C        -0.0017076916       -0.0064235930        0.0210871617
       5
 i =       49, time =       49.000, E =        -8.0695544196
  H         0.0395602892       -0.0168446635       -0.0444869078
  H        -0.0119121146       -0.0111946969        0.0042487564
  H        -0.0006184435        0.0130099403        0.0084144967
  H        -0.0117451819        0.0049462948       -0.0117167903
  C        -0.0153028177        0.0100902182        0.0435478910
       5
 i =       50, time =       50.000, E =        -8.0718346783
  H         0.0327677538       -0.0141024908       -0.0355214893
  H        -0.0008989062       -0.0058249206        0.0049350265
  H         0.0016786170       -0.0029475425        0.0069911524
  H        -0.0092376552        0.0047881760       -0.0121848951
  C        -0.0243187438        0.0180881114        0.0357847304
       5
 i =       51, time =       51.000, E =        -8.0736752655
  H         0.0190615274       -0.0088197379       -0.0189859921
  H         0.0084731484       -0.0011885500        0.0059661465
  H         0.0039519008       -0.0095712563        0.0069321934
  H        -0.0071776333        0.0054180326       -0.0108176675
  C        -0.0243095003        0.0141587952        0.0169106853
       5
 i =       52, time =       52.000, E =        -8.0739417530
  H         0.0066151970       -0.0052900568       -0.0042496792
  H         0.0160700390        0.0031074965        0.0063625366
  H         0.0053543719       -0.0154965815        0.0083114885
  H        -0.0041331243        0.0054736572       -0.0065517026
  C        -0.0239078383        0.0122041547       -0.0038661291
       5
 i =       53, time =       53.000, E =        -8.0733365347
  H        -0.0046803744       -0.0012848087        0.0081013344
  H         0.0234993284        0.0074472615        0.0056921320
  H         0.0066807795       -0.0157854008        0.0082270149
  H        -0.0001469951        0.0047584168       -0.0007751895
  C        -0.0253545890        0.0048663805       -0.0212369354
       5
 i =       54, time =       54.000, E =        -8.0732991642
  H        -0.0078521387        0.0012372558        0.0108154596
  H         0.0198536824        0.0073326054        0.0022859518
  H         0.0079074600       -0.0196356429        0.0064973476
  H         0.0059429823        0.0015870121        0.0103483116
  C        -0.0258487187        0.0094820731       -0.0299374539
       5
 i =       55, time =       55.000, E =        -8.0738055151
  H        -0.0094089149        0.0045386389        0.0127341136
  H         0.0104797920        0.0035762021       -0.0011236959
  H         0.0086013681       -0.0163601375        0.0034684328
  H         0.0095241994       -0.0002806762        0.0152426126
  C        -0.0191809472        0.0085345183       -0.0303037236
       5
 i =       56, time =       56.000, E =        -8.0744801943
  H        -0.0104158409        0.0068357510        0.0146575783
  H        -0.0035743248       -0.0020648485       -0.0049770817
  H         0.0049283965       -0.0002658645       -0.0000557579
  H         0.0105102040       -0.0004781439        0.0117617565
  C        -0.0014221143       -0.0040139476       -0.0213578828
       5
 i =       57, time =       57.000, E =        -8.0730783667
  H        -0.0135410217        0.0105743830        0.0180078504
  H        -0.0224979069       -0.0097580019       -0.0083136441
  H         0.0013322415        0.0123598806       -0.0036118447
  H         0.0098009049       -0.0005104161        0.0066026609
  C         0.0249385109       -0.0126536547       -0.0126564120
       5
 i =       58, time =       58.000, E =        -8.0721264941
  H        -0.0085491472        0.0097719266        0.0112936879
  H        -0.0290784803       -0.0130509231       -0.0091029993
  H        -0.0010573255        0.0272516317       -0.0059597311
  H         0.0082124295       -0.0008816823        0.0020764287
  C         0.0305103490       -0.0230894405        0.0017270720
       5
 i =       59, time =       59.000, E =        -8.0725168864
  H        -0.0031196600        0.0074849984        0.0041532186
  H        -0.0238862514       -0.0103315083       -0.0079508519
  H        -0.0016284750        0.0304201569       -0.0068535225
  H         0.0045681327        0.0002886484       -0.0052744996
  C         0.0241013493       -0.0278594297        0.0159682921
       5
 i =       60, time =       60.000, E =        -8.0736664246
  H         0.0007108991        0.0033244836       -0.0018969401
  H        -0.0099014106       -0.0036255656       -0.0073871453
  H        -0.0007702033        0.0191872070       -0.0068401110
  H         0.0012622305        0.0024939422       -0.0140809570
  C         0.0087234485       -0.0213659345        0.0302619800
       5
 i =       61, time =       61.000, E =        -8.0733971447
  H        -0.0010061023        0.0020526523       -0.0013977976
  H         0.0037378551        0.0038246937       -0.0058225614
  H        -0.0011704540        0.0085823658       -0.0071840906
  H        -0.0032644398        0.0041945223       -0.0242335208
  C         0.0017242869       -0.0186245027        0.0386934695
       5
 i =       62, time =       62.000, E =        -8.0721297562
  H        -0.0029355302       -0.0009794823       -0.0012461733
  H         0.0216390227        0.0145629725       -0.0041350674
  H        -0.0021500684       -0.0111956547       -0.0055108236
  H        -0.0055371454        0.0054761510       -0.0265885566
  C        -0.0110085457       -0.0078147345        0.0375224930
       5
 i =       63, time =       63.000, E =        -8.0706628099
  H        -0.0115760895       -0.0018523272        0.0052979382
  H         0.0275742450        0.0191008800       -0.0041856214
  H        -0.0045959022       -0.0263081057       -0.0035559505
  H        -0.0031576896        0.0037369757       -0.0179726961
  C        -0.0082361189        0.0053834685        0.0204255665
       5
 i =       64, time =       64.000, E =        -8.0691920943
  H        -0.0129613761       -0.0049090577        0.0043117820
  H         0.0320194158        0.0222312883       -0.0040679266
  H        -0.0079586495       -0.0304591142       -0.0015164833
  H        -0.0012889111        0.0018410236       -0.0092287289
  C        -0.0098012124        0.0113415354        0.0104998834
       5
 i =       65, time =       65.000, E =        -8.0697999921
  H        -0.0113576447       -0.0060380148        0.0023375965
  H         0.0312781206        0.0238947877       -0.0028250901
  H        -0.0116186187       -0.0215060088       -0.0018400916
  H         0.0018723127       -0.0019758891        0.0015173716
  C        -0.0101607060        0.0056600737        0.0007991305
       5
 i =       66, time =       66.000, E =        -8.0721124304
  H        -0.0079647591       -0.0060685342       -0.0002490411
  H         0.0188155729        0.0183421516       -0.0035363533
  H        -0.0130740218       -0.0078789466       -0.0028502260
  H         0.0035427365       -0.0044790176        0.0069994933
  C        -0.0013008016        0.0001136776       -0.0003770188
       5
 i =       67, time =       67.000, E =        -8.0729229222
  H        -0.0103517368       -0.0026522988        0.0047766546
  H         0.0029041318        0.0097419273       -0.0031483684
  H        -0.0134681290        0.0108898976       -0.0050882062
  H         0.0053254545       -0.0092555108        0.0133946608
  C         0.0156086885       -0.0086961049       -0.0099467699
       5
 i =       68, time =       68.000, E =        -8.0719863607
  H        -0.0054307676       -0.0024994128        0.0043224124
  H        -0.0161052617       -0.0018025398       -0.0038799425
  H        -0.0137313166        0.0251754941       -0.0055196023
  H         0.0076238622       -0.0134358241        0.0208623280
  C         0.0276583005       -0.0074269518       -0.0158002486
       5
 i =       69, time =       69.000, E =        -8.0708512186
  H         0.0057708606       -0.0036454527        0.0004684165
  H        -0.0327912154       -0.0116858078       -0.0035883769
  H        -0.0131235737        0.0201888425       -0.0062455693
  H         0.0063399622       -0.0156787002        0.0187609412
  C         0.0338173267        0.0108105912       -0.0094162744
       5
 i =       70, time =       70.000, E =        -8.0704511422
  H         0.0150816034       -0.0039952445       -0.0030072220
  H        -0.0354082251       -0.0140303781        0.0001912089
  H        -0.0108562739        0.0099807108       -0.0063719608
  H         0.0003818711       -0.0150150631        0.0056762623
  C         0.0308156358        0.0230298966        0.0034803425
       5
 i =       71, time =       71.000, E =        -8.0700879234
  H         0.0182354182       -0.0031896745       -0.0029340568
  H        -0.0356198134       -0.0147965023        0.0028133427
  H        -0.0084978702        0.0034282028       -0.0053374555
  H        -0.0028097010       -0.0136044249       -0.0013137009
  C         0.0287055060        0.0281261787        0.0067361966
       5
 i =       72, time =       72.000, E =        -8.0710596936
  H         0.0153692289       -0.0004676638        0.0026552309
  H        -0.0205578603       -0.0062212044        0.0107187926
  H        -0.0063929718        0.0006821405       -0.0038635384
  H        -0.0047793552       -0.0115819181       -0.0057751263
  C         0.0163671937        0.0175566613       -0.0037663828
       5
 i =       73, time =       73.000, E =        -8.0712833010
  H         0.0114728928        0.0027841688        0.0069631445
  H        -0.0082132611       -0.0003019953        0.0165746683
  H        -0.0030751969       -0.0041970683       -0.0029586902
  H        -0.0084395201       -0.0082588220       -0.0138173945
  C         0.0082626003        0.0099364026       -0.0067958115
       5
 i =       74, time =       74.000, E =        -8.0717064982
  H         0.0080421810        0.0041402670        0.0100622263
  H         0.0010584473        0.0033594892        0.0191481811
  H         0.0005749992       -0.0112483422        0.0001232458
  H        -0.0068796615       -0.0057559630       -0.0101214842
  C        -0.0027957358        0.0094646540       -0.0192579406
       5
 i =       75, time =       75.000, E =        -8.0714778685
  H         0.0049171315        0.0062800807        0.0131400481
  H         0.0096253506        0.0064557143        0.0216829601
  H         0.0030476121       -0.0074969661        0.0017081779
  H        -0.0023196391       -0.0065596701        0.0021990802