 DBCSR| CPU Multiplication driver                                           XSMM
 DBCSR| Multrec recursion limit                                              512
 DBCSR| Multiplication stack size                                           1000
 DBCSR| Maximum elements for images                                    UNLIMITED
 DBCSR| Multiplicative factor virtual images                                   1
 DBCSR| Use multiplication densification                                       T
 DBCSR| Multiplication size stacks                                             3
 DBCSR| Number of 3D layers                                               SINGLE
 DBCSR| Use MPI memory allocation                                              T
 DBCSR| Use RMA algorithm                                                      F
 DBCSR| Use Communication thread                                               T
 DBCSR| Communication thread load                                             87


  **** **** ******  **  PROGRAM STARTED AT               2022-04-10 22:26:32.845
 ***** ** ***  *** **   PROGRAM STARTED ON               iZ8vb36i0aq56zyfo16ephZ
 **    ****   ******    PROGRAM STARTED BY                                  root
 ***** **    ** ** **   PROGRAM PROCESS ID                                  2089
  **** **  *******  **  PROGRAM STARTED IN                         /root/example

 CP2K| version string:                                          CP2K version 7.1
 CP2K| source code revision number:                                  git:e635599
 CP2K| cp2kflags: libint fftw3 libxc parallel mpi3 scalapack xsmm               
 CP2K| is freely available from                            https://www.cp2k.org/
 CP2K| Program compiled at                       Tue 14 Dec 2021 05:21:44 PM CST
 CP2K| Program compiled on                               iZ8vbih924xsqspysxyrdrZ
 CP2K| Program compiled for                                                local
 CP2K| Data directory path                                   /root/cp2k-7.1/data
 CP2K| Input file name                                                   CH4.inp

 GLOBAL| Force Environment number                                              1
 GLOBAL| Basis set file name                                        BASIS_MOLOPT
 GLOBAL| Potential file name                                      GTH_POTENTIALS
 GLOBAL| MM Potential file name                                     MM_POTENTIAL
 GLOBAL| Coordinate file name                                      __STD_INPUT__
 GLOBAL| Method name                                                        CP2K
 GLOBAL| Project name                                                        CH4
 GLOBAL| Preferred FFT library                                             FFTW3
 GLOBAL| Preferred diagonalization lib.                                       SL
 GLOBAL| Run type                                                             MD
 GLOBAL| All-to-all communication in single precision                          F
 GLOBAL| FFTs using library dependent lengths                                  F
 GLOBAL| Global print level                                               MEDIUM
 GLOBAL| MPI I/O enabled                                                       T
 GLOBAL| Total number of message passing processes                             1
 GLOBAL| Number of threads for this process                                    1
 GLOBAL| This output is from process                                           0
 GLOBAL| CPU model name           Intel(R) Xeon(R) Platinum 8269CY CPU @ 2.50GHz
 GLOBAL| CPUID                                                              1003

 MEMORY| system memory details [Kb]
 MEMORY|                        rank 0           min           max       average
 MEMORY| MemTotal              7877092       7877092       7877092       7877092
 MEMORY| MemFree               6852232       6852232       6852232       6852232
 MEMORY| Buffers                 39124         39124         39124         39124
 MEMORY| Cached                 465536        465536        465536        465536
 MEMORY| Slab                   135020        135020        135020        135020
 MEMORY| SReclaimable            65764         65764         65764         65764
 MEMORY| MemLikelyFree         7422656       7422656       7422656       7422656


 *** Fundamental physical constants (SI units) ***

 *** Literature: B. J. Mohr and B. N. Taylor,
 ***             CODATA recommended values of the fundamental physical
 ***             constants: 2006, Web Version 5.1
 ***             http://physics.nist.gov/constants

 Speed of light in vacuum [m/s]                             2.99792458000000E+08
 Magnetic constant or permeability of vacuum [N/A**2]       1.25663706143592E-06
 Electric constant or permittivity of vacuum [F/m]          8.85418781762039E-12
 Planck constant (h) [J*s]                                  6.62606896000000E-34
 Planck constant (h-bar) [J*s]                              1.05457162825177E-34
 Elementary charge [C]                                      1.60217648700000E-19
 Electron mass [kg]                                         9.10938215000000E-31
 Electron g factor [ ]                                     -2.00231930436220E+00
 Proton mass [kg]                                           1.67262163700000E-27
 Fine-structure constant                                    7.29735253760000E-03
 Rydberg constant [1/m]                                     1.09737315685270E+07
 Avogadro constant [1/mol]                                  6.02214179000000E+23
 Boltzmann constant [J/K]                                   1.38065040000000E-23
 Atomic mass unit [kg]                                      1.66053878200000E-27
 Bohr radius [m]                                            5.29177208590000E-11

 *** Conversion factors ***

 [u] -> [a.u.]                                              1.82288848426455E+03
 [Angstrom] -> [Bohr] = [a.u.]                              1.88972613288564E+00
 [a.u.] = [Bohr] -> [Angstrom]                              5.29177208590000E-01
 [a.u.] -> [s]                                              2.41888432650478E-17
 [a.u.] -> [fs]                                             2.41888432650478E-02
 [a.u.] -> [J]                                              4.35974393937059E-18
 [a.u.] -> [N]                                              8.23872205491840E-08
 [a.u.] -> [K]                                              3.15774647902944E+05
 [a.u.] -> [kJ/mol]                                         2.62549961709828E+03
 [a.u.] -> [kcal/mol]                                       6.27509468713739E+02
 [a.u.] -> [Pa]                                             2.94210107994716E+13
 [a.u.] -> [bar]                                            2.94210107994716E+08
 [a.u.] -> [atm]                                            2.90362800883016E+08
 [a.u.] -> [eV]                                             2.72113838565563E+01
 [a.u.] -> [Hz]                                             6.57968392072181E+15
 [a.u.] -> [1/cm] (wave numbers)                            2.19474631370540E+05
 [a.u./Bohr**2] -> [1/cm]                                   5.14048714338585E+03
 

 CELL_TOP| Volume [angstrom^3]:                                         1000.000
 CELL_TOP| Vector a [angstrom    10.000     0.000     0.000    |a| =      10.000
 CELL_TOP| Vector b [angstrom     0.000    10.000     0.000    |b| =      10.000
 CELL_TOP| Vector c [angstrom     0.000     0.000    10.000    |c| =      10.000
 CELL_TOP| Angle (b,c), alpha [degree]:                                   90.000
 CELL_TOP| Angle (a,c), beta  [degree]:                                   90.000
 CELL_TOP| Angle (a,b), gamma [degree]:                                   90.000
 CELL_TOP| Numerically orthorhombic:                                         YES

 GENERATE|  Preliminary Number of Bonds generated:                             0
 GENERATE|  Achieved consistency in connectivity generation.

 CELL| Volume [angstrom^3]:                                             1000.000
 CELL| Vector a [angstrom]:      10.000     0.000     0.000    |a| =      10.000
 CELL| Vector b [angstrom]:       0.000    10.000     0.000    |b| =      10.000
 CELL| Vector c [angstrom]:       0.000     0.000    10.000    |c| =      10.000
 CELL| Angle (b,c), alpha [degree]:                                       90.000
 CELL| Angle (a,c), beta  [degree]:                                       90.000
 CELL| Angle (a,b), gamma [degree]:                                       90.000
 CELL| Numerically orthorhombic:                                             YES

 CELL_REF| Volume [angstrom^3]:                                         1000.000
 CELL_REF| Vector a [angstrom    10.000     0.000     0.000    |a| =      10.000
 CELL_REF| Vector b [angstrom     0.000    10.000     0.000    |b| =      10.000
 CELL_REF| Vector c [angstrom     0.000     0.000    10.000    |c| =      10.000
 CELL_REF| Angle (b,c), alpha [degree]:                                   90.000
 CELL_REF| Angle (a,c), beta  [degree]:                                   90.000
 CELL_REF| Angle (a,b), gamma [degree]:                                   90.000
 CELL_REF| Numerically orthorhombic:                                         YES

 *******************************************************************************
 *******************************************************************************
 **                                                                           **
 **     #####                         ##              ##                      **
 **    ##   ##            ##          ##              ##                      **
 **   ##     ##                       ##            ######                    **
 **   ##     ##  ##   ##  ##   #####  ##  ##   ####   ##    #####    #####    **
 **   ##     ##  ##   ##  ##  ##      ## ##   ##      ##   ##   ##  ##   ##   **
 **   ##  ## ##  ##   ##  ##  ##      ####     ###    ##   ######   ######    **
 **    ##  ###   ##   ##  ##  ##      ## ##      ##   ##   ##       ##        **
 **     #######   #####   ##   #####  ##  ##  ####    ##    #####   ##        **
 **           ##                                                    ##        **
 **                                                                           **
 **                                                ... make the atoms dance   **
 **                                                                           **
 **            Copyright (C) by CP2K developers group (2000 - 2019)           **
 **                                                                           **
 *******************************************************************************

 DFT| Spin restricted Kohn-Sham (RKS) calculation                            RKS
 DFT| Multiplicity                                                             1
 DFT| Number of spin states                                                    1
 DFT| Charge                                                                   0
 DFT| Self-interaction correction (SIC)                                       NO
 DFT| Cutoffs: density                                              1.000000E-10
 DFT|          gradient                                             1.000000E-10
 DFT|          tau                                                  1.000000E-10
 DFT|          cutoff_smoothing_range                               0.000000E+00
 DFT| XC density smoothing                                                  NONE
 DFT| XC derivatives                                                          PW
 FUNCTIONAL| ROUTINE=NEW
 FUNCTIONAL| PBE:
 FUNCTIONAL| J.P.Perdew, K.Burke, M.Ernzerhof, Phys. Rev. Letter, vol. 77, n 18,
 FUNCTIONAL|  pp. 3865-3868, (1996){spin unpolarized}                           
 vdW POTENTIAL|                                                   Pair Potential
 vdW POTENTIAL|          DFT-D3 (Version 3.1)
 vdW POTENTIAL|          Potential Form: S. Grimme et al, JCP 132: 154104 (2010)
 vdW POTENTIAL|          Zero Damping
 vdW POTENTIAL|          Cutoff Radius [Bohr]:                             20.00
 vdW POTENTIAL|          s6 Scaling Factor:                               1.0000
 vdW POTENTIAL|          sr6 Scaling Factor:                              1.2170
 vdW POTENTIAL|          s8 Scaling Factor:                               0.7220
 vdW POTENTIAL|          Cutoff for CN calculation:                   0.1000E-05

 QS| Method:                                                                 GPW
 QS| Density plane wave grid type                        NON-SPHERICAL FULLSPACE
 QS| Number of grid levels:                                                    4
 QS| Density cutoff [a.u.]:                                                200.0
 QS| Multi grid cutoff [a.u.]: 1) grid level                               200.0
 QS|                           2) grid level                                66.7
 QS|                           3) grid level                                22.2
 QS|                           4) grid level                                 7.4
 QS| Grid level progression factor:                                          3.0
 QS| Relative density cutoff [a.u.]:                                        20.0
 QS| Consistent realspace mapping and integration 
 QS| Interaction thresholds: eps_pgf_orb:                                3.2E-07
 QS|                         eps_filter_matrix:                          0.0E+00
 QS|                         eps_core_charge:                            1.0E-15
 QS|                         eps_rho_gspace:                             1.0E-13
 QS|                         eps_rho_rspace:                             1.0E-13
 QS|                         eps_gvg_rspace:                             3.2E-07
 QS|                         eps_ppl:                                    1.0E-02
 QS|                         eps_ppnl:                                   3.2E-09


 ATOMIC KIND INFORMATION

  1. Atomic kind: H                                     Number of atoms:       4

     Orbital Basis Set                                           DZVP-MOLOPT-GTH

       Number of orbital shell sets:                                           1
       Number of orbital shells:                                               3
       Number of primitive Cartesian functions:                                7
       Number of Cartesian basis functions:                                    5
       Number of spherical basis functions:                                    5
       Norm type:                                                              2

       Normalised Cartesian orbitals:

                        Set   Shell   Orbital            Exponent    Coefficient

                          1       1    2s               11.478000       0.129129
                                                         3.700759       0.177012
                                                         1.446884       0.141285
                                                         0.716815       0.245670
                                                         0.247919       0.094768
                                                         0.066918       0.004062
                                                         0.021708      -0.000053

                          1       2    3s               11.478000      -0.079256
                                                         3.700759      -0.152992
                                                         1.446884       0.015066
                                                         0.716815      -0.331234
                                                         0.247919       0.210690
                                                         0.066918       0.058630
                                                         0.021708      -0.003429

                          1       3    3px              11.478000       0.325290
                                                         3.700759       0.187466
                                                         1.446884       0.443300
                                                         0.716815       0.267738
                                                         0.247919       0.088285
                                                         0.066918       0.019092
                                                         0.021708       0.000629
                          1       3    3py              11.478000       0.325290
                                                         3.700759       0.187466
                                                         1.446884       0.443300
                                                         0.716815       0.267738
                                                         0.247919       0.088285
                                                         0.066918       0.019092
                                                         0.021708       0.000629
                          1       3    3pz              11.478000       0.325290
                                                         3.700759       0.187466
                                                         1.446884       0.443300
                                                         0.716815       0.267738
                                                         0.247919       0.088285
                                                         0.066918       0.019092
                                                         0.021708       0.000629

     GTH Potential information for                                    GTH-PBE-q1

       Description:                       Goedecker-Teter-Hutter pseudopotential
                                           Goedecker et al., PRB 54, 1703 (1996)
                                          Hartwigsen et al., PRB 58, 3641 (1998)
                                                      Krack, TCA 114, 145 (2005)

       Gaussian exponent of the core charge distribution:              12.500000
       Electronic configuration (s p d ...):                                   1

       Parameters of the local part of the GTH pseudopotential:

                          rloc        C1          C2          C3          C4
                        0.200000   -4.178900    0.724463

  2. Atomic kind: C                                     Number of atoms:       1

     Orbital Basis Set                                           DZVP-MOLOPT-GTH

       Number of orbital shell sets:                                           1
       Number of orbital shells:                                               5
       Number of primitive Cartesian functions:                                7
       Number of Cartesian basis functions:                                   14
       Number of spherical basis functions:                                   13
       Norm type:                                                              2

       Normalised Cartesian orbitals:

                        Set   Shell   Orbital            Exponent    Coefficient

                          1       1    2s                6.132625      -0.263661
                                                         2.625196      -0.231112
                                                         1.045457       0.042712
                                                         0.478316       0.306085
                                                         0.178617       0.065483
                                                         0.075145       0.000568
                                                         0.030287       0.000417

                          1       2    3s                6.132625       0.131937
                                                         2.625196       0.414269
                                                         1.045457      -0.593590
                                                         0.478316       0.644922
                                                         0.178617       0.069203
                                                         0.075145      -0.145101
                                                         0.030287       0.008247

                          1       3    3px               6.132625       0.562677
                                                         2.625196       0.633910
                                                         1.045457       0.379157
                                                         0.478316       0.235193
                                                         0.178617       0.052379
                                                         0.075145       0.003677
                                                         0.030287       0.000105
                          1       3    3py               6.132625       0.562677
                                                         2.625196       0.633910
                                                         1.045457       0.379157
                                                         0.478316       0.235193
                                                         0.178617       0.052379
                                                         0.075145       0.003677
                                                         0.030287       0.000105
                          1       3    3pz               6.132625       0.562677
                                                         2.625196       0.633910
                                                         1.045457       0.379157
                                                         0.478316       0.235193
                                                         0.178617       0.052379
                                                         0.075145       0.003677
                                                         0.030287       0.000105

                          1       4    4px               6.132625      -0.472364
                                                         2.625196      -0.221326
                                                         1.045457      -0.481781
                                                         0.478316       0.135466
                                                         0.178617       0.072281
                                                         0.075145       0.024920
                                                         0.030287       0.002706
                          1       4    4py               6.132625      -0.472364
                                                         2.625196      -0.221326
                                                         1.045457      -0.481781
                                                         0.478316       0.135466
                                                         0.178617       0.072281
                                                         0.075145       0.024920
                                                         0.030287       0.002706
                          1       4    4pz               6.132625      -0.472364
                                                         2.625196      -0.221326
                                                         1.045457      -0.481781
                                                         0.478316       0.135466
                                                         0.178617       0.072281
                                                         0.075145       0.024920
                                                         0.030287       0.002706

                          1       5    4dx2              6.132625       0.874783
                                                         2.625196       0.375772
                                                         1.045457       0.653959
                                                         0.478316       0.191007
                                                         0.178617       0.018656
                                                         0.075145       0.003649
                                                         0.030287      -0.000011
                          1       5    4dxy              6.132625       1.515169
                                                         2.625196       0.650856
                                                         1.045457       1.132690
                                                         0.478316       0.330834
                                                         0.178617       0.032314
                                                         0.075145       0.006321
                                                         0.030287      -0.000019
                          1       5    4dxz              6.132625       1.515169
                                                         2.625196       0.650856
                                                         1.045457       1.132690
                                                         0.478316       0.330834
                                                         0.178617       0.032314
                                                         0.075145       0.006321
                                                         0.030287      -0.000019
                          1       5    4dy2              6.132625       0.874783
                                                         2.625196       0.375772
                                                         1.045457       0.653959
                                                         0.478316       0.191007
                                                         0.178617       0.018656
                                                         0.075145       0.003649
                                                         0.030287      -0.000011
                          1       5    4dyz              6.132625       1.515169
                                                         2.625196       0.650856
                                                         1.045457       1.132690
                                                         0.478316       0.330834
                                                         0.178617       0.032314
                                                         0.075145       0.006321
                                                         0.030287      -0.000019
                          1       5    4dz2              6.132625       0.874783
                                                         2.625196       0.375772
                                                         1.045457       0.653959
                                                         0.478316       0.191007
                                                         0.178617       0.018656
                                                         0.075145       0.003649
                                                         0.030287      -0.000011

     GTH Potential information for                                    GTH-PBE-q4

       Description:                       Goedecker-Teter-Hutter pseudopotential
                                           Goedecker et al., PRB 54, 1703 (1996)
                                          Hartwigsen et al., PRB 58, 3641 (1998)
                                                      Krack, TCA 114, 145 (2005)

       Gaussian exponent of the core charge distribution:               4.364419
       Electronic configuration (s p d ...):                               2   2

       Parameters of the local part of the GTH pseudopotential:

                          rloc        C1          C2          C3          C4
                        0.338471   -8.803674    1.339211

       Parameters of the non-local part of the GTH pseudopotential:

                   l      r(l)      h(i,j,l)

                   0    0.302576    9.622487
                   1    0.291507


 MOLECULE KIND INFORMATION


 All atoms are their own molecule, skipping detailed information


 TOTAL NUMBERS AND MAXIMUM NUMBERS

  Total number of            - Atomic kinds:                                   2
                             - Atoms:                                          5
                             - Shell sets:                                     5
                             - Shells:                                        17
                             - Primitive Cartesian functions:                 35
                             - Cartesian basis functions:                     34
                             - Spherical basis functions:                     33

  Maximum angular momentum of- Orbital basis functions:                        2
                             - Local part of the GTH pseudopotential:          2
                             - Non-local part of the GTH pseudopotential:      0


 MODULE QUICKSTEP:  ATOMIC COORDINATES IN angstrom

  Atom  Kind  Element       X           Y           Z          Z(eff)       Mass

       1     1 H    1    5.381543    4.068608    3.605730      1.00       1.0079
       2     1 H    1    3.945397    4.803206    4.384688      1.00       1.0079
       3     1 H    1    5.520924    5.654503    4.427087      1.00       1.0079
       4     1 H    1    5.281853    4.164148    5.391827      1.00       1.0079
       5     2 C    6    5.032506    4.672552    4.452323      4.00      12.0107




 SCF PARAMETERS         Density guess:                                   RESTART
                        --------------------------------------------------------
                        max_scf:                                              50
                        max_scf_history:                                       0
                        max_diis:                                              4
                        --------------------------------------------------------
                        eps_scf:                                        1.00E-06
                        eps_scf_history:                                0.00E+00
                        eps_diis:                                       1.00E-01
                        eps_eigval:                                     1.00E-05
                        --------------------------------------------------------
                        level_shift [a.u.]:                                 0.00
                        --------------------------------------------------------
                        Outer loop SCF in use 
                        No variables optimised in outer loop
                        eps_scf                                         1.00E-06
                        max_scf                                               15
                        No outer loop optimization
                        step_size                                       5.00E-01

 PW_GRID| Information for grid number                                          1
 PW_GRID| Cutoff [a.u.]                                                    200.0
 PW_GRID| spherical cutoff:                                                   NO
 PW_GRID|   Bounds   1            -62      62                Points:         125
 PW_GRID|   Bounds   2            -62      62                Points:         125
 PW_GRID|   Bounds   3            -62      62                Points:         125
 PW_GRID| Volume element (a.u.^3)  0.3455E-02     Volume (a.u.^3)      6748.3346
 PW_GRID| Grid span                                                    FULLSPACE

 PW_GRID| Information for grid number                                          2
 PW_GRID| Number of the reference grid                                         1
 PW_GRID| Cutoff [a.u.]                                                     66.7
 PW_GRID| spherical cutoff:                                                   NO
 PW_GRID|   Bounds   1            -36      35                Points:          72
 PW_GRID|   Bounds   2            -36      35                Points:          72
 PW_GRID|   Bounds   3            -36      35                Points:          72
 PW_GRID| Volume element (a.u.^3)  0.1808E-01     Volume (a.u.^3)      6748.3346
 PW_GRID| Grid span                                                    FULLSPACE

 PW_GRID| Information for grid number                                          3
 PW_GRID| Number of the reference grid                                         1
 PW_GRID| Cutoff [a.u.]                                                     22.2
 PW_GRID| spherical cutoff:                                                   NO
 PW_GRID|   Bounds   1            -22      22                Points:          45
 PW_GRID|   Bounds   2            -22      22                Points:          45
 PW_GRID|   Bounds   3            -22      22                Points:          45
 PW_GRID| Volume element (a.u.^3)  0.7406E-01     Volume (a.u.^3)      6748.3346
 PW_GRID| Grid span                                                    FULLSPACE

 PW_GRID| Information for grid number                                          4
 PW_GRID| Number of the reference grid                                         1
 PW_GRID| Cutoff [a.u.]                                                      7.4
 PW_GRID| spherical cutoff:                                                   NO
 PW_GRID|   Bounds   1            -12      11                Points:          24
 PW_GRID|   Bounds   2            -12      11                Points:          24
 PW_GRID|   Bounds   3            -12      11                Points:          24
 PW_GRID| Volume element (a.u.^3)  0.4882         Volume (a.u.^3)      6748.3346
 PW_GRID| Grid span                                                    FULLSPACE

 POISSON| Solver                                                        PERIODIC
 POISSON| Periodicity                                                        XYZ

 RS_GRID| Information for grid number                                          1
 RS_GRID|   Bounds   1            -62      62                Points:         125
 RS_GRID|   Bounds   2            -62      62                Points:         125
 RS_GRID|   Bounds   3            -62      62                Points:         125

 RS_GRID| Information for grid number                                          2
 RS_GRID|   Bounds   1            -36      35                Points:          72
 RS_GRID|   Bounds   2            -36      35                Points:          72
 RS_GRID|   Bounds   3            -36      35                Points:          72

 RS_GRID| Information for grid number                                          3
 RS_GRID|   Bounds   1            -22      22                Points:          45
 RS_GRID|   Bounds   2            -22      22                Points:          45
 RS_GRID|   Bounds   3            -22      22                Points:          45

 RS_GRID| Information for grid number                                          4
 RS_GRID|   Bounds   1            -12      11                Points:          24
 RS_GRID|   Bounds   2            -12      11                Points:          24
 RS_GRID|   Bounds   3            -12      11                Points:          24

 MD| Molecular Dynamics Protocol 
 MD| Ensemble Type                                                           NVT
 MD| Number of Time Steps                                                    200
 MD| Time Step [fs]                                                         1.00
 MD| Temperature [K]                                                      300.00
 MD| Temperature tolerance [K]                                              0.00
 MD| Print MD information every                                        1 step(s)
 MD| File type     Print frequency[steps]                             File names
 MD| Coordinates            1                                      CH4-pos-1.xyz
 MD| Velocities             1                                      CH4-vel-1.xyz
 MD| Energies               1                                         CH4-1.ener
 MD| Dump                   1                                      CH4-1.restart

 ROT| Rotational Analysis Info 
 ROT| Principal axes and moments of inertia in atomic units:
 ROT|                                1                 2                 3
 ROT| EIGENVALUES            0.210544740E+05   0.210551286E+05   0.210561437E+05
 ROT|      X                    -0.111010463       0.058695832      -0.992084410
 ROT|      Y                     0.315114327       0.948824084       0.020876280
 ROT|      Z                     0.942538932      -0.310302526      -0.123825298
 ROT| Number of Rotovibrational vectors:     6

 Calculation of degrees of freedom
                                                      Number of atoms:         5
                                 Number of Intramolecular constraints:         0
                                 Number of Intermolecular constraints:         0
                                  Invariants(translation + rotations):         0
                                                   Degrees of freedom:        15


 Restraints Information
                                  Number of Intramolecular restraints:         0
                                  Number of Intermolecular restraints:         0

 THERMOSTAT| Thermostat Info for PARTICLES
 THERMOSTAT| End of Thermostat Info for PARTICLES

 ************************** Velocities initialization **************************
 Initial Temperature                                                    300.00 K
 COM velocity:            0.000000000000     -0.000000000000      0.000000000000
 *******************************************************************************


 Number of electrons:                                                          8
 Number of occupied orbitals:                                                  4
 Number of molecular orbitals:                                                 4

 Number of orbital functions:                                                 33
 Number of independent orbital functions:                                     33

 Extrapolation method: initial_guess

 *** WARNING in qs_initial_guess.F:280 :: User requested to restart the    ***
 *** wavefunction from the file named: CH4-RESTART.wfn. This file does not ***
 *** exist. Please check the existence of the file or change properly the  ***
 *** value of the keyword WFN_RESTART_FILE_NAME. Calculation continues     ***
 *** using ATOMIC GUESS.                                                   ***


 Atomic guess: The first density matrix is obtained in terms of atomic orbitals
               and electronic configurations assigned to each atomic kind

 Guess for atomic kind: H

 Electronic structure
    Total number of core electrons                                          0.00
    Total number of valence electrons                                       1.00
    Total number of electrons                                               1.00
    Multiplicity                                                   not specified
    S      1.00


 *******************************************************************************
                  Iteration          Convergence                     Energy [au]
 *******************************************************************************
                          1        0.437545E-02                  -0.424159432110
                          2        0.531356E-03                  -0.424178438213
                          3        0.259176E-06                  -0.424178722480

 Energy components [Hartree]           Total Energy ::           -0.424178722480
                                        Band Energy ::           -0.199015229016
                                     Kinetic Energy ::            0.464007633961
                                   Potential Energy ::           -0.888186356441
                                      Virial (-V/T) ::            1.914163240935
                                        Core Energy ::           -0.479160803564
                                          XC Energy ::           -0.244352904054
                                     Coulomb Energy ::            0.299334985138
                       Total Pseudopotential Energy ::           -0.962295316385
                       Local Pseudopotential Energy ::           -0.962295316385
                    Nonlocal Pseudopotential Energy ::            0.000000000000
                                        Confinement ::            0.191268788606

 Orbital energies  State     L     Occupation   Energy[a.u.]          Energy[eV]

                       1     0          1.000      -0.199015           -5.415480


 Total Electron Density at R=0:                                         0.242907

 Guess for atomic kind: C

 Electronic structure
    Total number of core electrons                                          2.00
    Total number of valence electrons                                       4.00
    Total number of electrons                                               6.00
    Multiplicity                                                   not specified
    S   [  2.00] 2.00
    P      2.00


 *******************************************************************************
                  Iteration          Convergence                     Energy [au]
 *******************************************************************************
                          1        0.427148E-01                  -5.227811253113
                          2        0.218489E-01                  -5.228672519307
                          3        0.666851E-04                  -5.228969180638
                          4        0.102221E-07                  -5.228969183366

 Energy components [Hartree]           Total Energy ::           -5.228969183366
                                        Band Energy ::           -1.112012594120
                                     Kinetic Energy ::            3.667652954033
                                   Potential Energy ::           -8.896622137400
                                      Virial (-V/T) ::            2.425699009394
                                        Core Energy ::           -8.354438099696
                                          XC Energy ::           -1.430507543452
                                     Coulomb Energy ::            4.555976459783
                       Total Pseudopotential Energy ::          -12.054077133824
                       Local Pseudopotential Energy ::          -12.576063923110
                    Nonlocal Pseudopotential Energy ::            0.521986789286
                                        Confinement ::            0.319860800937

 Orbital energies  State     L     Occupation   Energy[a.u.]          Energy[eV]

                       1     0          2.000      -0.418938          -11.399891

                       1     1          2.000      -0.137068           -3.729809


 Total Electron Density at R=0:                                         0.015856
 Re-scaling the density matrix to get the right number of electrons
                  # Electrons              Trace(P)               Scaling factor
                            8                 7.999                        1.000


 SCF WAVEFUNCTION OPTIMIZATION

  ----------------------------------- OT ---------------------------------------
  Minimizer      : CG                  : conjugate gradient
  Preconditioner : FULL_SINGLE_INVERSE : inversion of 
                                         H + eS - 2*(Sc)(c^T*H*c+const)(Sc)^T
  Precond_solver : DEFAULT
  Line search    : 2PNT                : 2 energies, one gradient
  stepsize       :    0.08000000                  energy_gap     :    0.10000000
  eps_taylor     :   0.10000E-15                  max_taylor     :             4
  ----------------------------------- OT ---------------------------------------

  Step     Update method      Time    Convergence         Total energy    Change
  ------------------------------------------------------------------------------
     1 OT CG       0.80E-01    1.8     0.33759293        -7.3350512058 -7.34E+00
     2 OT LS       0.80E-01    1.3                       -7.9339434503
     3 OT CG       0.80E-01    2.1     0.16777824        -7.9343408584 -5.99E-01
     4 OT LS       0.56E-01    1.3                       -8.0136133414
     5 OT CG       0.56E-01    2.2     0.08218530        -8.0300150312 -9.57E-02
     6 OT LS       0.75E-01    1.3                       -8.0613955877
     7 OT CG       0.75E-01    2.2     0.04140813        -8.0632512691 -3.32E-02
     8 OT LS       0.76E-01    1.3                       -8.0716942737
     9 OT CG       0.76E-01    2.2     0.02333351        -8.0716968824 -8.45E-03
    10 OT LS       0.11E+00    1.3                       -8.0752484643
    11 OT CG       0.11E+00    2.2     0.00841319        -8.0755774706 -3.88E-03
    12 OT LS       0.86E-01    1.3                       -8.0759552781
    13 OT CG       0.86E-01    2.1     0.00531617        -8.0759807040 -4.03E-04
    14 OT LS       0.74E-01    1.3                       -8.0761158988
    15 OT CG       0.74E-01    2.1     0.00223685        -8.0761194408 -1.39E-04
    16 OT LS       0.10E+00    1.3                       -8.0761510565
    17 OT CG       0.10E+00    2.2     0.00074396        -8.0761538889 -3.44E-05
    18 OT LS       0.64E-01    1.3                       -8.0761552536
    19 OT CG       0.64E-01    2.2     0.00036275        -8.0761562101 -2.32E-06
    20 OT LS       0.84E-01    1.3                       -8.0761568949
    21 OT CG       0.84E-01    2.2     0.00016101        -8.0761569370 -7.27E-07
    22 OT LS       0.12E+00    1.3                       -8.0761571208
    23 OT CG       0.12E+00    2.2     0.00007083        -8.0761571367 -2.00E-07
    24 OT LS       0.60E-01    1.3                       -8.0761571389
    25 OT CG       0.60E-01    2.1     0.00003190        -8.0761571566 -1.99E-08
    26 OT LS       0.90E-01    1.3                       -8.0761571620
    27 OT CG       0.90E-01    2.1     0.00001222        -8.0761571626 -6.03E-09
    28 OT LS       0.10E+00    1.3                       -8.0761571636
    29 OT CG       0.10E+00    2.1     0.00000628        -8.0761571637 -1.02E-09
    30 OT LS       0.62E-01    1.3                       -8.0761571637
    31 OT CG       0.62E-01    2.2     0.00000277        -8.0761571638 -1.62E-10
    32 OT LS       0.93E-01    1.3                       -8.0761571639
    33 OT CG       0.93E-01    2.2     0.00000095        -8.0761571639 -4.69E-11

  *** SCF run converged in    33 steps ***


  Electronic density on regular grids:         -8.0000000000       -0.0000000000
  Core density on regular grids:                8.0000000000       -0.0000000000
  Total charge density on r-space grids:       -0.0000000000
  Total charge density g-space grids:          -0.0000000000

  Overlap energy of the core charge distribution:               0.00000103669449
  Self energy of the core charge distribution:                -18.97690376224277
  Core Hamiltonian energy:                                      6.17945730821374
  Hartree energy:                                               7.89551846973543
  Exchange-correlation energy:                                 -3.17414303830196
  Dispersion energy:                                           -0.00008717796660

  Total energy:                                                -8.07615716386766

  outer SCF iter =    1 RMS gradient =   0.95E-06 energy =         -8.0761571639
  outer SCF loop converged in   1 iterations or   33 steps


 !-----------------------------------------------------------------------------!
                     Mulliken Population Analysis

 #  Atom  Element  Kind  Atomic population                           Net charge
       1     H        1          0.938934                              0.061066
       2     H        1          0.939779                              0.060221
       3     H        1          0.939316                              0.060684
       4     H        1          0.939141                              0.060859
       5     C        2          4.242831                             -0.242831
 # Total charge                              8.000000                  0.000000

 !-----------------------------------------------------------------------------!

 !-----------------------------------------------------------------------------!
                           Hirshfeld Charges

  #Atom  Element  Kind  Ref Charge     Population                    Net charge
      1       H      1       1.000          0.552                         0.448
      2       H      1       1.000          0.552                         0.448
      3       H      1       1.000          0.552                         0.448
      4       H      1       1.000          0.552                         0.448
      5       C      2       4.000          5.783                        -1.783

  Total Charge                                                            0.011
 !-----------------------------------------------------------------------------!

 ENERGY| Total FORCE_EVAL ( QS ) energy (a.u.):               -8.076157163873566


 ATOMIC FORCES in [a.u.]

 # Atom   Kind   Element          X              Y              Z
      1      1      H          -0.00015250     0.00026644     0.00037949
      2      1      H           0.00053727    -0.00006839     0.00003263
      3      1      H          -0.00022582    -0.00047430     0.00001119
      4      1      H          -0.00010767     0.00022504    -0.00042839
      5      2      C          -0.00004704     0.00003904     0.00001935
 SUM OF ATOMIC FORCES           0.00000423    -0.00001218     0.00001428     0.00001923

 MD_ENERGIES| Initialization proceeding


 ******************************** GO CP2K GO! **********************************
 INITIAL POTENTIAL ENERGY[hartree]     =                     -0.807615716387E+01
 INITIAL KINETIC ENERGY[hartree]       =                      0.712533452240E-02
 INITIAL TEMPERATURE[K]                =                                 300.000
 INITIAL PRESSURE[bar]                 =                      0.145646057834E+03
 INITIAL VOLUME[bohr^3]                =                      0.674833458309E+04
 INITIAL CELL LNTHS[bohr]   =      0.1889726E+02   0.1889726E+02   0.1889726E+02
 INITIAL CELL ANGLS[deg]    =      0.9000000E+02   0.9000000E+02   0.9000000E+02
 ******************************** GO CP2K GO! **********************************

 Number of electrons:                                                          8
 Number of occupied orbitals:                                                  4
 Number of molecular orbitals:                                                 4

 Number of orbital functions:                                                 33
 Number of independent orbital functions:                                     33

 Parameters for the always stable predictor-corrector (ASPC) method:

  ASPC order: 0

  B(1) =   1.000000

 Extrapolation method: ASPC


 SCF WAVEFUNCTION OPTIMIZATION

  ----------------------------------- OT ---------------------------------------
  Minimizer      : CG                  : conjugate gradient
  Preconditioner : FULL_SINGLE_INVERSE : inversion of 
                                         H + eS - 2*(Sc)(c^T*H*c+const)(Sc)^T
  Precond_solver : DEFAULT
  Line search    : 2PNT                : 2 energies, one gradient
  stepsize       :    0.08000000                  energy_gap     :    0.10000000
  eps_taylor     :   0.10000E-15                  max_taylor     :             4
  ----------------------------------- OT ---------------------------------------

  Step     Update method      Time    Convergence         Total energy    Change
  ------------------------------------------------------------------------------
     1 OT CG       0.80E-01    1.8     0.00416357        -8.0746641844 -8.07E+00
     2 OT LS       0.24E+00    1.3                       -8.0748172208
     3 OT CG       0.24E+00    2.2     0.00140254        -8.0749429960 -2.79E-04
     4 OT LS       0.17E+00    1.3                       -8.0749604125
     5 OT CG       0.17E+00    2.3     0.00041002        -8.0749648137 -2.18E-05
     6 OT LS       0.21E+00    1.4                       -8.0749670302
     7 OT CG       0.21E+00    2.4     0.00008098        -8.0749671105 -2.30E-06
     8 OT LS       0.23E+00    1.4                       -8.0749672093
     9 OT CG       0.23E+00    2.3     0.00001207        -8.0749672104 -9.99E-08
    10 OT LS       0.24E+00    1.3                       -8.0749672127
    11 OT CG       0.24E+00    2.3     0.00000220        -8.0749672127 -2.29E-09
    12 OT LS       0.25E+00    1.3                       -8.0749672127
    13 OT CG       0.25E+00    2.2     0.00000057        -8.0749672127 -7.89E-11

  *** SCF run converged in    13 steps ***


  Electronic density on regular grids:         -8.0000000000        0.0000000000
  Core density on regular grids:                8.0000000000       -0.0000000000
  Total charge density on r-space grids:        0.0000000000
  Total charge density g-space grids:           0.0000000000

  Overlap energy of the core charge distribution:               0.00000088951349
  Self energy of the core charge distribution:                -18.97690376224277
  Core Hamiltonian energy:                                      6.14232829440603
  Hartree energy:                                               7.92117437966751
  Exchange-correlation energy:                                 -3.16147414881713
  Dispersion energy:                                           -0.00009286527009

  Total energy:                                                -8.07496721274296

  outer SCF iter =    1 RMS gradient =   0.57E-06 energy =         -8.0749672127
  outer SCF loop converged in   1 iterations or   13 steps


 !-----------------------------------------------------------------------------!
                     Mulliken Population Analysis

 #  Atom  Element  Kind  Atomic population                           Net charge
       1     H        1          0.939648                              0.060352
       2     H        1          0.939914                              0.060086
       3     H        1          0.938279                              0.061721
       4     H        1          0.941376                              0.058624
       5     C        2          4.240783                             -0.240783
 # Total charge                              8.000000                  0.000000

 !-----------------------------------------------------------------------------!

 !-----------------------------------------------------------------------------!
                           Hirshfeld Charges

  #Atom  Element  Kind  Ref Charge     Population                    Net charge
      1       H      1       1.000          0.551                         0.449
      2       H      1       1.000          0.551                         0.449
      3       H      1       1.000          0.552                         0.448
      4       H      1       1.000          0.550                         0.450
      5       C      2       4.000          5.784                        -1.784

  Total Charge                                                            0.011
 !-----------------------------------------------------------------------------!

 ENERGY| Total FORCE_EVAL ( QS ) energy (a.u.):               -8.074967212745939


 ATOMIC FORCES in [a.u.]

 # Atom   Kind   Element          X              Y              Z
      1      1      H          -0.00546125     0.00679811     0.00633816
      2      1      H           0.00123654    -0.00347397     0.00095500
      3      1      H           0.00572699     0.00664212     0.00148919
      4      1      H          -0.00656925     0.01182721    -0.01496724
      5      2      C           0.00507051    -0.02180305     0.00619485
 SUM OF ATOMIC FORCES           0.00000355    -0.00000958     0.00000995     0.00001426

 Centre of mass motion (COM):                            x =        0.0001202050
                                                         y =       -0.0000872956
                                                         z =        0.0000278117

 *******************************************************************************
 ENSEMBLE TYPE                =                                              NVT
 STEP NUMBER                  =                                                1
 TIME [fs]                    =                                         1.000000
 CONSERVED QUANTITY [hartree] =                              -0.806893675884E+01

                                              INSTANTANEOUS             AVERAGES
 CPU TIME [s]                 =                       87.05                87.05
 ENERGY DRIFT PER ATOM [K]    =          0.600417137992E+01   0.000000000000E+00
 POTENTIAL ENERGY[hartree]    =         -0.807496721275E+01  -0.807496721275E+01
 KINETIC ENERGY [hartree]     =          0.781683525044E-02   0.781683525044E-02
 TEMPERATURE [K]              =                     329.114              329.114
 PRESSURE [bar]               =         -0.510884620335E+03  -0.510884620335E+03
 *******************************************************************************


 Number of electrons:                                                          8
 Number of occupied orbitals:                                                  4
 Number of molecular orbitals:                                                 4

 Number of orbital functions:                                                 33
 Number of independent orbital functions:                                     33

 Parameters for the always stable predictor-corrector (ASPC) method:

  ASPC order: 0

  B(1) =   2.000000
  B(2) =  -1.000000

 Extrapolation method: ASPC


 SCF WAVEFUNCTION OPTIMIZATION

  ----------------------------------- OT ---------------------------------------
  Minimizer      : CG                  : conjugate gradient
  Preconditioner : FULL_SINGLE_INVERSE : inversion of 
                                         H + eS - 2*(Sc)(c^T*H*c+const)(Sc)^T
  Precond_solver : DEFAULT
  Line search    : 2PNT                : 2 energies, one gradient
  stepsize       :    0.08000000                  energy_gap     :    0.10000000
  eps_taylor     :   0.10000E-15                  max_taylor     :             4
  ----------------------------------- OT ---------------------------------------

  Step     Update method      Time    Convergence         Total energy    Change
  ------------------------------------------------------------------------------
     1 OT CG       0.80E-01    1.8     0.00245464        -8.0726614820 -8.07E+00
     2 OT LS       0.26E+00    1.3                       -8.0727151921
     3 OT CG       0.26E+00    2.3     0.00059086        -8.0727635280 -1.02E-04
     4 OT LS       0.23E+00    1.3                       -8.0727686611
     5 OT CG       0.23E+00    2.3     0.00011621        -8.0727687518 -5.22E-06
     6 OT LS       0.20E+00    1.3                       -8.0727689240
     7 OT CG       0.20E+00    2.3     0.00004344        -8.0727689278 -1.76E-07
     8 OT LS       0.17E+00    1.3                       -8.0727689484
     9 OT CG       0.17E+00    2.2     0.00000825        -8.0727689489 -2.11E-08
    10 OT LS       0.23E+00    1.3                       -8.0727689499
    11 OT CG       0.23E+00    2.2     0.00000139        -8.0727689500 -1.04E-09
    12 OT LS       0.25E+00    1.3                       -8.0727689500
    13 OT CG       0.25E+00    2.2     0.00000026        -8.0727689500 -3.20E-11

  *** SCF run converged in    13 steps ***


  Electronic density on regular grids:         -8.0000000000        0.0000000000
  Core density on regular grids:                8.0000000000       -0.0000000000
  Total charge density on r-space grids:        0.0000000000
  Total charge density g-space grids:           0.0000000000

  Overlap energy of the core charge distribution:               0.00000077564163
  Self energy of the core charge distribution:                -18.97690376224277
  Core Hamiltonian energy:                                      6.10503853050589
  Hartree energy:                                               7.94764907154323
  Exchange-correlation energy:                                 -3.14845420018134
  Dispersion energy:                                           -0.00009936528483

  Total energy:                                                -8.07276895001819

  outer SCF iter =    1 RMS gradient =   0.26E-06 energy =         -8.0727689500
  outer SCF loop converged in   1 iterations or   13 steps


 !-----------------------------------------------------------------------------!
                     Mulliken Population Analysis

 #  Atom  Element  Kind  Atomic population                           Net charge
       1     H        1          0.940780                              0.059220
       2     H        1          0.939601                              0.060399
       3     H        1          0.938523                              0.061477
       4     H        1          0.943184                              0.056816
       5     C        2          4.237912                             -0.237912
 # Total charge                              8.000000                 -0.000000

 !-----------------------------------------------------------------------------!

 !-----------------------------------------------------------------------------!
                           Hirshfeld Charges

  #Atom  Element  Kind  Ref Charge     Population                    Net charge
      1       H      1       1.000          0.551                         0.449
      2       H      1       1.000          0.551                         0.449
      3       H      1       1.000          0.552                         0.448
      4       H      1       1.000          0.549                         0.451
      5       C      2       4.000          5.786                        -1.786

  Total Charge                                                            0.012
 !-----------------------------------------------------------------------------!

 ENERGY| Total FORCE_EVAL ( QS ) energy (a.u.):               -8.072768950019336


 ATOMIC FORCES in [a.u.]

 # Atom   Kind   Element          X              Y              Z
      1      1      H          -0.01116849     0.01280654     0.01113564
      2      1      H          -0.00214319    -0.00554637    -0.00068299
      3      1      H           0.00650584     0.00326840     0.00355637
      4      1      H          -0.00910035     0.01995755    -0.02342660
      5      2      C           0.01591007    -0.03049236     0.00942504
 SUM OF ATOMIC FORCES           0.00000388    -0.00000624     0.00000746     0.00001047

 Centre of mass motion (COM):                            x =        0.0000224461
                                                         y =       -0.0000701891
                                                         z =       -0.0000264825

 *******************************************************************************
 ENSEMBLE TYPE                =                                              NVT
 STEP NUMBER                  =                                                2
 TIME [fs]                    =                                         2.000000
 CONSERVED QUANTITY [hartree] =                              -0.806881657677E+01

                                              INSTANTANEOUS             AVERAGES
 CPU TIME [s]                 =                       26.21                56.63
 ENERGY DRIFT PER ATOM [K]    =          0.135942614346E+02   0.679713071729E+01
 POTENTIAL ENERGY[hartree]    =         -0.807276895002E+01  -0.807386808138E+01
 KINETIC ENERGY [hartree]     =          0.589121948845E-02   0.685402736944E-02
 TEMPERATURE [K]              =                     248.040              288.577
 PRESSURE [bar]               =         -0.122852333331E+04  -0.869703976823E+03
 *******************************************************************************


 Number of electrons:                                                          8
 Number of occupied orbitals:                                                  4
 Number of molecular orbitals:                                                 4

 Number of orbital functions:                                                 33
 Number of independent orbital functions:                                     33

 Parameters for the always stable predictor-corrector (ASPC) method:

  ASPC order: 1

  B(1) =   2.500000
  B(2) =  -2.000000
  B(3) =   0.500000

 Extrapolation method: ASPC


 SCF WAVEFUNCTION OPTIMIZATION

  ----------------------------------- OT ---------------------------------------
  Minimizer      : CG                  : conjugate gradient
  Preconditioner : FULL_SINGLE_INVERSE : inversion of 
                                         H + eS - 2*(Sc)(c^T*H*c+const)(Sc)^T
  Precond_solver : DEFAULT
  Line search    : 2PNT                : 2 energies, one gradient
  stepsize       :    0.08000000                  energy_gap     :    0.10000000
  eps_taylor     :   0.10000E-15                  max_taylor     :             4
  ----------------------------------- OT ---------------------------------------

  Step     Update method      Time    Convergence         Total energy    Change
  ------------------------------------------------------------------------------
     1 OT CG       0.80E-01    1.8     0.00272458        -8.0703473345 -8.07E+00
     2 OT LS       0.25E+00    1.3                       -8.0704133446
     3 OT CG       0.25E+00    2.3     0.00083988        -8.0704714616 -1.24E-04
     4 OT LS       0.17E+00    1.3                       -8.0704772645
     5 OT CG       0.17E+00    2.3     0.00026687        -8.0704792844 -7.82E-06
     6 OT LS       0.19E+00    1.3                       -8.0704801534
     7 OT CG       0.19E+00    2.2     0.00005411        -8.0704801623 -8.78E-07
     8 OT LS       0.23E+00    1.3                       -8.0704802056
     9 OT CG       0.23E+00    2.2     0.00000926        -8.0704802074 -4.51E-08
    10 OT LS       0.24E+00    1.3                       -8.0704802087
    11 OT CG       0.24E+00    2.2     0.00000182        -8.0704802087 -1.34E-09
    12 OT LS       0.25E+00    1.3                       -8.0704802088
    13 OT CG       0.25E+00    2.3     0.00000036        -8.0704802088 -5.50E-11

  *** SCF run converged in    13 steps ***


  Electronic density on regular grids:         -8.0000000000        0.0000000000
  Core density on regular grids:                8.0000000000       -0.0000000000
  Total charge density on r-space grids:        0.0000000000
  Total charge density g-space grids:           0.0000000000

  Overlap energy of the core charge distribution:               0.00000073090873
  Self energy of the core charge distribution:                -18.97690376224277
  Core Hamiltonian energy:                                      6.08596009649009
  Hartree energy:                                               7.96200105333167
  Exchange-correlation energy:                                 -3.14143482812306
  Dispersion energy:                                           -0.00010349915150

  Total energy:                                                -8.07048020878684

  outer SCF iter =    1 RMS gradient =   0.36E-06 energy =         -8.0704802088
  outer SCF loop converged in   1 iterations or   13 steps


 !-----------------------------------------------------------------------------!
                     Mulliken Population Analysis

 #  Atom  Element  Kind  Atomic population                           Net charge
       1     H        1          0.940521                              0.059479
       2     H        1          0.939213                              0.060787
       3     H        1          0.940346                              0.059654
       4     H        1          0.943829                              0.056171
       5     C        2          4.236091                             -0.236091
 # Total charge                              8.000000                  0.000000

 !-----------------------------------------------------------------------------!

 !-----------------------------------------------------------------------------!
                           Hirshfeld Charges

  #Atom  Element  Kind  Ref Charge     Population                    Net charge
      1       H      1       1.000          0.551                         0.449
      2       H      1       1.000          0.551                         0.449
      3       H      1       1.000          0.550                         0.450
      4       H      1       1.000          0.549                         0.451
      5       C      2       4.000          5.787                        -1.787

  Total Charge                                                            0.012
 !-----------------------------------------------------------------------------!

 ENERGY| Total FORCE_EVAL ( QS ) energy (a.u.):               -8.070480208788601


 ATOMIC FORCES in [a.u.]

 # Atom   Kind   Element          X              Y              Z
      1      1      H          -0.01366718     0.01492700     0.00742842
      2      1      H          -0.01212818    -0.00750055    -0.00169276
      3      1      H           0.00272930    -0.01276743     0.00606353
      4      1      H          -0.01151720     0.02530465    -0.02367283
      5      2      C           0.03458818    -0.01996961     0.01187997
 SUM OF ATOMIC FORCES           0.00000492    -0.00000593     0.00000632     0.00000997

 Centre of mass motion (COM):                            x =        0.0000162571
                                                         y =       -0.0001274306
                                                         z =        0.0000397737

 *******************************************************************************
 ENSEMBLE TYPE                =                                              NVT
 STEP NUMBER                  =                                                3
 TIME [fs]                    =                                         3.000000
 CONSERVED QUANTITY [hartree] =                              -0.806873040984E+01

                                              INSTANTANEOUS             AVERAGES
 CPU TIME [s]                 =                       26.27                46.51
 ENERGY DRIFT PER ATOM [K]    =          0.190361277835E+02   0.108767964060E+02
 POTENTIAL ENERGY[hartree]    =         -0.807048020879E+01  -0.807273879052E+01
 KINETIC ENERGY [hartree]     =          0.651700711481E-02   0.674168728457E-02
 TEMPERATURE [K]              =                     274.387              283.847
 PRESSURE [bar]               =         -0.153983948407E+04  -0.109308247924E+04
 *******************************************************************************


 Number of electrons:                                                          8
 Number of occupied orbitals:                                                  4
 Number of molecular orbitals:                                                 4

 Number of orbital functions:                                                 33
 Number of independent orbital functions:                                     33

 Parameters for the always stable predictor-corrector (ASPC) method:

  ASPC order: 2

  B(1) =   2.800000
  B(2) =  -2.800000
  B(3) =   1.200000
  B(4) =  -0.200000

 Extrapolation method: ASPC


 SCF WAVEFUNCTION OPTIMIZATION

  ----------------------------------- OT ---------------------------------------
  Minimizer      : CG                  : conjugate gradient
  Preconditioner : FULL_SINGLE_INVERSE : inversion of 
                                         H + eS - 2*(Sc)(c^T*H*c+const)(Sc)^T
  Precond_solver : DEFAULT
  Line search    : 2PNT                : 2 energies, one gradient
  stepsize       :    0.08000000                  energy_gap     :    0.10000000
  eps_taylor     :   0.10000E-15                  max_taylor     :             4
  ----------------------------------- OT ---------------------------------------

  Step     Update method      Time    Convergence         Total energy    Change
  ------------------------------------------------------------------------------
     1 OT CG       0.80E-01    1.8     0.00340373        -8.0678631059 -8.07E+00
     2 OT LS       0.25E+00    1.3                       -8.0679661602
     3 OT CG       0.25E+00    2.3     0.00081978        -8.0680571210 -1.94E-04
     4 OT LS       0.23E+00    1.3                       -8.0680671347
     5 OT CG       0.23E+00    2.3     0.00015893        -8.0680672578 -1.01E-05
     6 OT LS       0.19E+00    1.3                       -8.0680675630
     7 OT CG       0.19E+00    2.2     0.00005952        -8.0680675756 -3.18E-07
     8 OT LS       0.17E+00    1.3                       -8.0680676143
     9 OT CG       0.17E+00    2.2     0.00001258        -8.0680676150 -3.94E-08
    10 OT LS       0.22E+00    1.3                       -8.0680676172
    11 OT CG       0.22E+00    2.3     0.00000260        -8.0680676173 -2.33E-09
    12 OT LS       0.26E+00    1.3                       -8.0680676174
    13 OT CG       0.26E+00    2.2     0.00000046        -8.0680676174 -1.15E-10

  *** SCF run converged in    13 steps ***


  Electronic density on regular grids:         -8.0000000000        0.0000000000
  Core density on regular grids:                8.0000000000       -0.0000000000
  Total charge density on r-space grids:        0.0000000000
  Total charge density g-space grids:           0.0000000000

  Overlap energy of the core charge distribution:               0.00000076980599
  Self energy of the core charge distribution:                -18.97690376224277
  Core Hamiltonian energy:                                      6.07887065863928
  Hartree energy:                                               7.96842335712487
  Exchange-correlation energy:                                 -3.13835272506707
  Dispersion energy:                                           -0.00010591570676

  Total energy:                                                -8.06806761744646

  outer SCF iter =    1 RMS gradient =   0.46E-06 energy =         -8.0680676174
  outer SCF loop converged in   1 iterations or   13 steps


 !-----------------------------------------------------------------------------!
                     Mulliken Population Analysis

 #  Atom  Element  Kind  Atomic population                           Net charge
       1     H        1          0.940786                              0.059214
       2     H        1          0.939396                              0.060604
       3     H        1          0.941604                              0.058396
       4     H        1          0.943361                              0.056639
       5     C        2          4.234854                             -0.234854
 # Total charge                              8.000000                  0.000000

 !-----------------------------------------------------------------------------!

 !-----------------------------------------------------------------------------!
                           Hirshfeld Charges

  #Atom  Element  Kind  Ref Charge     Population                    Net charge
      1       H      1       1.000          0.550                         0.450
      2       H      1       1.000          0.551                         0.449
      3       H      1       1.000          0.550                         0.450
      4       H      1       1.000          0.549                         0.451
      5       C      2       4.000          5.788                        -1.788

  Total Charge                                                            0.012
 !-----------------------------------------------------------------------------!

 ENERGY| Total FORCE_EVAL ( QS ) energy (a.u.):               -8.068067617449930


 ATOMIC FORCES in [a.u.]

 # Atom   Kind   Element          X              Y              Z
      1      1      H          -0.01691951     0.01760292     0.00578359
      2      1      H          -0.01812818    -0.01020076    -0.00191155
      3      1      H           0.00244841    -0.02093826     0.00736805
      4      1      H          -0.01375607     0.02696150    -0.01985722
      5      2      C           0.04636578    -0.01343300     0.00862252
 SUM OF ATOMIC FORCES           0.00001042    -0.00000760     0.00000539     0.00001398

 Centre of mass motion (COM):                            x =       -0.0000317059
                                                         y =       -0.0000777724
                                                         z =        0.0000321585

 *******************************************************************************
 ENSEMBLE TYPE                =                                              NVT
 STEP NUMBER                  =                                                4
 TIME [fs]                    =                                         4.000000
 CONSERVED QUANTITY [hartree] =                              -0.806864749686E+01

                                              INSTANTANEOUS             AVERAGES
 CPU TIME [s]                 =                       26.18                41.43
 ENERGY DRIFT PER ATOM [K]    =          0.242724914965E+02   0.142257201786E+02
 POTENTIAL ENERGY[hartree]    =         -0.806806761745E+01  -0.807157099725E+01
 KINETIC ENERGY [hartree]     =          0.486996536884E-02   0.627375680563E-02
 TEMPERATURE [K]              =                     205.042              264.146
 PRESSURE [bar]               =         -0.169400171887E+04  -0.124331228914E+04
 *******************************************************************************


 Number of electrons:                                                          8
 Number of occupied orbitals:                                                  4
 Number of molecular orbitals:                                                 4

 Number of orbital functions:                                                 33
 Number of independent orbital functions:                                     33

 Parameters for the always stable predictor-corrector (ASPC) method:

  ASPC order: 3

  B(1) =   3.000000
  B(2) =  -3.428571
  B(3) =   1.928571
  B(4) =  -0.571429
  B(5) =   0.071429

 Extrapolation method: ASPC


 SCF WAVEFUNCTION OPTIMIZATION

  ----------------------------------- OT ---------------------------------------
  Minimizer      : CG                  : conjugate gradient
  Preconditioner : FULL_SINGLE_INVERSE : inversion of 
                                         H + eS - 2*(Sc)(c^T*H*c+const)(Sc)^T
  Precond_solver : DEFAULT
  Line search    : 2PNT                : 2 energies, one gradient
  stepsize       :    0.08000000                  energy_gap     :    0.10000000
  eps_taylor     :   0.10000E-15                  max_taylor     :             4
  ----------------------------------- OT ---------------------------------------

  Step     Update method      Time    Convergence         Total energy    Change
  ------------------------------------------------------------------------------
     1 OT CG       0.80E-01    1.7     0.00323920        -8.0680489080 -8.07E+00
     2 OT LS       0.23E+00    1.3                       -8.0681406302
[...]
  Minimizer      : CG                  : conjugate gradient
  Preconditioner : FULL_SINGLE_INVERSE : inversion of 
                                         H + eS - 2*(Sc)(c^T*H*c+const)(Sc)^T
  Precond_solver : DEFAULT
  Line search    : 2PNT                : 2 energies, one gradient
  stepsize       :    0.08000000                  energy_gap     :    0.10000000
  eps_taylor     :   0.10000E-15                  max_taylor     :             4
  ----------------------------------- OT ---------------------------------------

  Step     Update method      Time    Convergence         Total energy    Change
  ------------------------------------------------------------------------------
     1 OT CG       0.80E-01    1.8     0.00424080        -8.0703433072 -8.07E+00
     2 OT LS       0.22E+00    1.3                       -8.0704988951
     3 OT CG       0.22E+00    2.3     0.00158507        -8.0706057879 -2.62E-04
     4 OT LS       0.17E+00    1.3                       -8.0706306210
     5 OT CG       0.17E+00    2.3     0.00036650        -8.0706334992 -2.77E-05
     6 OT LS       0.23E+00    1.3                       -8.0706353814
     7 OT CG       0.23E+00    2.3     0.00007604        -8.0706355278 -2.03E-06
     8 OT LS       0.22E+00    1.3                       -8.0706356135
     9 OT CG       0.22E+00    2.2     0.00001155        -8.0706356136 -8.58E-08
    10 OT LS       0.25E+00    1.3                       -8.0706356157
    11 OT CG       0.25E+00    2.3     0.00000203        -8.0706356157 -2.16E-09
    12 OT LS       0.25E+00    1.3                       -8.0706356158
    13 OT CG       0.25E+00    2.3     0.00000042        -8.0706356158 -6.86E-11

  *** SCF run converged in    13 steps ***


  Electronic density on regular grids:         -8.0000000000       -0.0000000000
  Core density on regular grids:                8.0000000000       -0.0000000000
  Total charge density on r-space grids:       -0.0000000000
  Total charge density g-space grids:          -0.0000000000

  Overlap energy of the core charge distribution:               0.00000268757663
  Self energy of the core charge distribution:                -18.97690376224277
  Core Hamiltonian energy:                                      6.26174969591036
  Hartree energy:                                               7.84453732781541
  Exchange-correlation energy:                                 -3.19994273125925
  Dispersion energy:                                           -0.00007883360000

  Total energy:                                                -8.07063561579963

  outer SCF iter =    1 RMS gradient =   0.42E-06 energy =         -8.0706356158
  outer SCF loop converged in   1 iterations or   13 steps


 !-----------------------------------------------------------------------------!
                     Mulliken Population Analysis

 #  Atom  Element  Kind  Atomic population                           Net charge
       1     H        1          0.940793                              0.059207
       2     H        1          0.938366                              0.061634
       3     H        1          0.938083                              0.061917
       4     H        1          0.940896                              0.059104
       5     C        2          4.241862                             -0.241862
 # Total charge                              8.000000                  0.000000

 !-----------------------------------------------------------------------------!

 !-----------------------------------------------------------------------------!
                           Hirshfeld Charges

  #Atom  Element  Kind  Ref Charge     Population                    Net charge
      1       H      1       1.000          0.551                         0.449
      2       H      1       1.000          0.556                         0.444
      3       H      1       1.000          0.554                         0.446
      4       H      1       1.000          0.551                         0.449
      5       C      2       4.000          5.778                        -1.778

  Total Charge                                                            0.010
 !-----------------------------------------------------------------------------!

 ENERGY| Total FORCE_EVAL ( QS ) energy (a.u.):               -8.070635615801939


 ATOMIC FORCES in [a.u.]

 # Atom   Kind   Element          X              Y              Z
      1      1      H           0.00410086     0.00561240     0.00268908
      2      1      H          -0.03832831    -0.01714990     0.03897878
      3      1      H          -0.00827356     0.01454694    -0.00709271
      4      1      H          -0.01091190    -0.00817590    -0.00210393
      5      2      C           0.05345968     0.00516081    -0.03241945
 SUM OF ATOMIC FORCES           0.00004678    -0.00000565     0.00005178     0.00007001

 Centre of mass motion (COM):                            x =        0.0001123818
                                                         y =        0.0000327184
                                                         z =       -0.0000557364

 *******************************************************************************
 ENSEMBLE TYPE                =                                              NVT
 STEP NUMBER                  =                                              200
 TIME [fs]                    =                                       200.000000
 CONSERVED QUANTITY [hartree] =                              -0.806865138374E+01

                                              INSTANTANEOUS             AVERAGES
 CPU TIME [s]                 =                       26.27                26.48
 ENERGY DRIFT PER ATOM [K]    =          0.240270157443E+02   0.464622237394E+01
 POTENTIAL ENERGY[hartree]    =         -0.807063561580E+01  -0.807043911587E+01
 KINETIC ENERGY [hartree]     =          0.643025251503E-02   0.699763798674E-02
 TEMPERATURE [K]              =                     270.735              294.624
 PRESSURE [bar]               =          0.178950728587E+04   0.112479167962E+02
 *******************************************************************************


 -------------------------------------------------------------------------------
 -                                                                             -
 -                                DBCSR STATISTICS                             -
 -                                                                             -
 -------------------------------------------------------------------------------
 COUNTER                                    TOTAL       BLAS       SMM       ACC
 flops    13 x     4 x     4                83616       0.0%    100.0%      0.0%
 flops     5 x     4 x     4               128640       0.0%    100.0%      0.0%
 flops     4 x     4 x     4              1386624       0.0%    100.0%      0.0%
 flops    13 x     5 x     4              3363360       0.0%    100.0%      0.0%
 flops     5 x    13 x     4              3363360       0.0%    100.0%      0.0%
 flops    13 x    13 x     4              4372368       0.0%    100.0%      0.0%
 flops     5 x     5 x     4              6468000       0.0%    100.0%      0.0%
 flops     4 x     4 x    33              7264224       0.0%    100.0%      0.0%
 flops    13 x     4 x    13              7901088       0.0%    100.0%      0.0%
 flops    33 x     4 x     4              9830304       0.0%    100.0%      0.0%
 flops    13 x     4 x     5             12155520       0.0%    100.0%      0.0%
 flops     5 x     4 x    13             12155520       0.0%    100.0%      0.0%
 flops    33 x     4 x    33             14087304       0.0%    100.0%      0.0%
 flops     5 x     4 x     5             18700800       0.0%    100.0%      0.0%
 flops inhomo. stacks                           0       0.0%      0.0%      0.0%
 flops total                       101.260728E+06       0.0%    100.0%      0.0%
 flops max/rank                    101.260728E+06       0.0%    100.0%      0.0%
 matmuls inhomo. stacks                         0       0.0%      0.0%      0.0%
 matmuls total                             224253       0.0%    100.0%      0.0%
 number of processed stacks                 65352       0.0%    100.0%      0.0%
 average stack size                                     0.0       3.4       0.0
 marketing flops                   112.080504E+06
 -------------------------------------------------------------------------------
 # multiplications                          38118
 max memory usage/rank             737.509376E+06
 # max total images/rank                        1
 # max 3D layers                                1
 # MPI messages exchanged                       0
 MPI messages size (bytes):
  total size                         0.000000E+00
  min size                           0.000000E+00
  max size                           0.000000E+00
  average size                       0.000000E+00
 MPI breakdown and total messages size (bytes):
             size <=      128                   0                        0
       128 < size <=     8192                   0                        0
      8192 < size <=    32768                   0                        0
     32768 < size <=   131072                   0                        0
    131072 < size <=  4194304                   0                        0
   4194304 < size <= 16777216                   0                        0
  16777216 < size                               0                        0
 -------------------------------------------------------------------------------
 -                                                                             -
 -                      DBCSR MESSAGE PASSING PERFORMANCE                      -
 -                                                                             -
 -------------------------------------------------------------------------------
 ROUTINE             CALLS      AVE VOLUME [Bytes]
 MP_Group             2435
 MP_Bcast               15                     12.
 MP_Allreduce       189675                      8.
 MP_Alltoall        142194                    377.
 MP_Wait            914832
 MP_ISend           151668                    106.
 MP_IRecv           151668                    106.
 MP_Memory         1321626
 -------------------------------------------------------------------------------

 MEMORY| Estimated peak process memory [MiB]                                 704

 -------------------------------------------------------------------------------
 ----                             MULTIGRID INFO                            ----
 -------------------------------------------------------------------------------
 count for grid        1:         148146          cutoff [a.u.]          200.00
 count for grid        2:          95266          cutoff [a.u.]           66.67
 count for grid        3:         150090          cutoff [a.u.]           22.22
 count for grid        4:         579918          cutoff [a.u.]            7.41
 total gridlevel count  :         973420

 -------------------------------------------------------------------------------
 -                                                                             -
 -                         MESSAGE PASSING PERFORMANCE                         -
 -                                                                             -
 -------------------------------------------------------------------------------

 ROUTINE             CALLS      AVE VOLUME [Bytes]
 MP_Group                4
 MP_Bcast            26745                   1064.
 MP_Allreduce        75477                    191.
 MP_Sync                 4
 -------------------------------------------------------------------------------


 -------------------------------------------------------------------------------
 -                                                                             -
 -                           R E F E R E N C E S                               -
 -                                                                             -
 -------------------------------------------------------------------------------
 
 CP2K version 7.1, the CP2K developers group (2019).
 CP2K is freely available from https://www.cp2k.org/ .

 Schuett, Ole; Messmer, Peter; Hutter, Juerg; VandeVondele, Joost. 
 Electronic Structure Calculations on Graphics Processing Units, John
 Wiley & Sons, Ltd, 173-190 (2016). 
 GPU-Accelerated Sparse Matrix-Matrix Multiplication for
 Linear Scaling Density Functional Theory.
 https://dx.doi.org/10.1002/9781118670712.ch8

 Borstnik, U; VandeVondele, J; Weber, V; Hutter, J. 
 PARALLEL COMPUTING, 40 (5-6), 47-58 (2014). 
 Sparse matrix multiplication: The distributed block-compressed sparse
 row library.
 https://dx.doi.org/10.1016/j.parco.2014.03.012

 Hutter, J; Iannuzzi, M; Schiffmann, F; VandeVondele, J. 
 WIREs Comput Mol Sci., 4 (1), 15-25 (2014). 
 CP2K: atomistic simulations of condensed matter systems.
 https://dx.doi.org/10.1002/wcms.1159

 Grimme, S; Ehrlich, S; Goerigk, L. 
 JOURNAL OF COMPUTATIONAL CHEMISTRY, 32, 1456 (2011). 
 Effect of the damping function in dispersion corrected density functional theory.
 https://dx.doi.org/10.1002/jcc.21759

 Grimme, S; Antony, J; Ehrlich, S; Krieg, H. 
 JOURNAL OF CHEMICAL PHYSICS, 132 (15), 154104 (2010). 
 A consistent and accurate ab initio parametrization of density
 functional dispersion correction (DFT-D) for the 94 elements H-Pu.
 https://dx.doi.org/10.1063/1.3382344

 Ceriotti, M; Bussi, G; Parrinello, M. 
 PHYSICAL REVIEW LETTERS, 103 (3), 030603 (2009). 
 Nuclear Quantum Effects in Solids Using a Colored-Noise Thermostat.
 https://dx.doi.org/10.1103/PhysRevLett.103.030603

 Ceriotti, M; Bussi, G; Parrinello, M. 
 PHYSICAL REVIEW LETTERS, 102 (2), 020601 (2009). 
 Langevin equation with colored noise for constant-temperature
 molecular dynamics simulations.
 https://dx.doi.org/10.1103/PhysRevLett.102.020601

 VandeVondele, J; Hutter, J. 
 JOURNAL OF CHEMICAL PHYSICS, 127 (11), 114105 (2007). 
 Gaussian basis sets for accurate calculations on molecular systems in
 gas and condensed phases.
 https://dx.doi.org/10.1063/1.2770708

 Krack, M. 
 THEORETICAL CHEMISTRY ACCOUNTS, 114 (1-3), 145-152 (2005). 
 Pseudopotentials for H to Kr optimized for gradient-corrected
 exchange-correlation functionals.
 https://dx.doi.org/10.1007/s00214-005-0655-y

 VandeVondele, J; Krack, M; Mohamed, F; Parrinello, M; Chassaing, T;
 Hutter, J. COMPUTER PHYSICS COMMUNICATIONS, 167 (2), 103-128 (2005). 
 QUICKSTEP: Fast and accurate density functional calculations using a
 mixed Gaussian and plane waves approach.
 https://dx.doi.org/10.1016/j.cpc.2004.12.014

 Frigo, M; Johnson, SG. 
 PROCEEDINGS OF THE IEEE, 93 (2), 216-231 (2005). 
 The design and implementation of FFTW3.
 https://dx.doi.org/10.1109/JPROC.2004.840301

 Kolafa, J. 
 JOURNAL OF COMPUTATIONAL CHEMISTRY, 25 (3), 335-342 (2004). 
 Time-reversible always stable predictor-corrector method for molecular dynamics of polarizable molecules.
 https://dx.doi.org/10.1002/jcc.10385

 VandeVondele, J; Hutter, J. 
 JOURNAL OF CHEMICAL PHYSICS, 118 (10), 4365-4369 (2003). 
 An efficient orbital transformation method for electronic structure
 calculations.
 https://dx.doi.org/10.1063/1.1543154

 Hartwigsen, C; Goedecker, S; Hutter, J. 
 PHYSICAL REVIEW B, 58 (7), 3641-3662 (1998). 
 Relativistic separable dual-space Gaussian pseudopotentials from H to Rn.
 https://dx.doi.org/10.1103/PhysRevB.58.3641

 Lippert, G; Hutter, J; Parrinello, M. 
 MOLECULAR PHYSICS, 92 (3), 477-487 (1997). 
 A hybrid Gaussian and plane wave density functional scheme.
 https://dx.doi.org/10.1080/002689797170220

 Perdew, JP; Burke, K; Ernzerhof, M. 
 PHYSICAL REVIEW LETTERS, 77 (18), 3865-3868 (1996). 
 Generalized gradient approximation made simple.
 https://dx.doi.org/10.1103/PhysRevLett.77.3865

 Goedecker, S; Teter, M; Hutter, J. 
 PHYSICAL REVIEW B, 54 (3), 1703-1710 (1996). 
 Separable dual-space Gaussian pseudopotentials.
 https://dx.doi.org/10.1103/PhysRevB.54.1703


 -------------------------------------------------------------------------------
 -                                                                             -
 -                                T I M I N G                                  -
 -                                                                             -
 -------------------------------------------------------------------------------
 SUBROUTINE                       CALLS  ASD         SELF TIME        TOTAL TIME
                                MAXIMUM       AVERAGE  MAXIMUM  AVERAGE  MAXIMUM
 CP2K                                 1  1.0    0.032    0.032 5296.929 5296.929
 qs_mol_dyn_low                       1  2.0    0.014    0.014 5296.144 5296.144
 qs_forces                          201  4.0    0.012    0.012 5295.277 5295.277
 velocity_verlet                    200  3.0    0.029    0.029 5235.085 5235.085
 qs_energies                        201  5.0    0.009    0.009 4858.324 4858.324
 scf_env_do_scf                     201  6.0    0.012    0.012 4730.247 4730.247
 scf_env_do_scf_inner_loop         2631  7.0    0.201    0.201 4370.522 4370.522
 rebuild_ks_matrix                 2832  8.8    0.007    0.007 3952.365 3952.365
 qs_ks_build_kohn_sham_matrix      2832  9.8    0.289    0.289 3952.358 3952.358
 qs_ks_update_qs_env               2832  8.0    0.017    0.017 3526.478 3526.478
 qs_vxc_create                     2832 10.8    0.035    0.035 3130.738 3130.738
 pw_transfer                      43074 12.3    2.539    2.539 2489.284 2489.284
 fft_wrap_pw1pw2                  37410 13.4    0.343    0.343 2456.368 2456.368
 fft_wrap_pw1pw2_200              24063 14.6   99.912   99.912 2386.700 2386.700
 xc_vxc_pw_create                  1617 11.6  183.309  183.309 2190.645 2190.645
 xc_rho_set_and_dset_create        2832 12.8   14.568   14.568 2182.717 2182.717
 fft3d_s                          37411 15.4 1503.194 1503.194 1503.283 1503.283
 qs_rho_update_rho                 2832  8.1    0.015    0.015 1282.487 1282.487
 calculate_rho_elec                2832  9.1  618.284  618.284 1282.472 1282.472
 xc_functional_eval                2832 13.8    0.023    0.023 1238.547 1238.547
 pbe_lda_eval                      2832 14.8 1238.524 1238.524 1238.524 1238.524
 xc_exc_calc                       1215 12.0   12.029   12.029  940.057  940.057
 density_rs2pw                     2832 10.1    0.127    0.127  658.593  658.593
 sum_up_and_integrate              1617 10.6    4.672    4.672  489.152  489.152
 integrate_v_rspace                1617 11.6  269.040  269.040  484.478  484.478
 pw_scatter_s                     19413 16.0  443.002  443.002  443.002  443.002
 qs_ks_update_qs_env_forces         201  5.0    0.001    0.001  425.955  425.955
 pw_gather_s                      17997 14.7  405.345  405.345  405.345  405.345
 init_scf_loop                      201  7.0    0.003    0.003  359.684  359.684
 potential_pw2rs                   1617 12.6    0.643    0.643  215.222  215.222
 pw_poisson_solve                  2832 10.8  107.529  107.529  147.704  147.704
 pw_derive                        13950 13.2  142.301  142.301  142.301  142.301
 pw_copy                          26895 13.1  110.007  110.007  110.007  110.007
 -------------------------------------------------------------------------------

 The number of warnings for this run is : 1
 
 -------------------------------------------------------------------------------
  **** **** ******  **  PROGRAM ENDED AT                 2022-04-10 23:54:50.103
 ***** ** ***  *** **   PROGRAM RAN ON                   iZ8vb36i0aq56zyfo16ephZ
 **    ****   ******    PROGRAM RAN BY                                      root
 ***** **    ** ** **   PROGRAM PROCESS ID                                  2089
  **** **  *******  **  PROGRAM STOPPED IN                         /root/example
